ITEM: TIMESTEP
184000
ITEM: NUMBER OF ATOMS
976
ITEM: BOX BOUNDS ss ss ss
-0.0238218 286.167
-1.51046 8.95014
-2.57006 8.66299
ITEM: ATOMS id type xs ys zs
1 1 0.00442423 0.416376 0.228904
2 1 0.00868307 0.347157 0.228973
3 1 0.00437703 0.145671 0.228948
4 1 9.81964e-05 0.211246 0.228912
5 1 0.0044029 0.822893 0.228917
6 1 0.00867002 0.755627 0.228929
7 1 0.0043463 0.551598 0.22893
8 1 9.89336e-05 0.619239 0.228918
9 1 0.0135664 0.412629 0.232419
10 1 0.0183378 0.350247 0.237951
11 1 0.0138632 0.162909 0.236558
12 1 0.00909768 0.198139 0.230805
13 1 0.0231171 0.419957 0.233266
14 1 0.0279014 0.351869 0.230955
15 1 0.0231949 0.165423 0.237363
16 1 0.0185277 0.208071 0.241268
17 1 0.0324181 0.424633 0.225699
18 1 0.0369048 0.357908 0.234724
19 1 0.032365 0.175644 0.235126
20 1 0.0277571 0.211079 0.236549
21 1 0.0416317 0.428217 0.232824
22 1 0.0464104 0.364187 0.242785
23 1 0.0418584 0.175955 0.256723
24 1 0.0371568 0.215814 0.243862
25 1 0.0512593 0.428862 0.232136
26 1 0.0558082 0.370159 0.243301
27 1 0.0510445 0.182084 0.268227
28 1 0.0465113 0.225001 0.265059
29 1 0.0606615 0.430087 0.238385
30 1 0.0652913 0.365226 0.244398
31 1 0.0606514 0.183473 0.263322
32 1 0.0559013 0.22509 0.261175
33 1 0.069849 0.426658 0.246029
34 1 0.0747495 0.365258 0.249882
35 1 0.0700922 0.180292 0.260164
36 1 0.065338 0.224557 0.255658
37 1 0.0794284 0.433683 0.248129
38 1 0.0841277 0.364097 0.256438
39 1 0.0794713 0.181754 0.272571
40 1 0.074836 0.223846 0.263225
41 1 0.0889045 0.442887 0.240914
42 1 0.0936989 0.374593 0.252509
43 1 0.089041 0.185292 0.27022
44 1 0.0842386 0.22173 0.27196
45 1 0.0984248 0.44284 0.24879
46 1 0.103216 0.369902 0.263032
47 1 0.0984319 0.183458 0.268028
48 1 0.0937639 0.230124 0.260087
49 1 0.107813 0.439491 0.270512
50 1 0.11259 0.380358 0.27989
51 1 0.107929 0.195859 0.286023
52 1 0.103189 0.230286 0.267995
53 1 0.117077 0.44665 0.279656
54 1 0.121866 0.379138 0.279553
55 1 0.117287 0.20038 0.296666
56 1 0.112545 0.237987 0.289286
57 1 0.126575 0.443648 0.268682
58 1 0.131303 0.378338 0.277554
59 1 0.126583 0.196067 0.291012
60 1 0.121962 0.23951 0.290914
61 1 0.135946 0.443945 0.253764
62 1 0.140858 0.380564 0.260575
63 1 0.136186 0.202123 0.291717
64 1 0.131428 0.2361 0.28972
65 1 0.145339 0.448067 0.249849
66 1 0.150159 0.37765 0.258351
67 1 0.145382 0.198733 0.285681
68 1 0.140823 0.240995 0.280389
69 1 0.154778 0.440924 0.24828
70 1 0.159571 0.373607 0.259267
71 1 0.154703 0.194501 0.293265
72 1 0.150051 0.241384 0.288682
73 1 0.164107 0.44101 0.252033
74 1 0.16885 0.377152 0.260271
75 1 0.164237 0.195693 0.292399
76 1 0.159318 0.236242 0.287871
77 1 0.17364 0.44372 0.254045
78 1 0.178255 0.380991 0.268712
79 1 0.173538 0.196018 0.295315
80 1 0.168961 0.238193 0.283665
81 1 0.182997 0.448271 0.249172
82 1 0.187798 0.379448 0.265539
83 1 0.182881 0.202885 0.28934
84 1 0.178149 0.236037 0.281025
85 1 0.192398 0.449421 0.247734
86 1 0.197022 0.382571 0.246338
87 1 0.192377 0.197768 0.27425
88 1 0.187541 0.239392 0.280853
89 1 0.201749 0.443057 0.235629
90 1 0.206431 0.374837 0.251014
91 1 0.201635 0.197375 0.273592
92 1 0.197014 0.240215 0.267101
93 1 0.211078 0.440863 0.235783
94 1 0.215795 0.375692 0.248288
95 1 0.210847 0.190152 0.280571
96 1 0.206275 0.231629 0.266648
97 1 0.220527 0.438779 0.236976
98 1 0.225089 0.378504 0.252428
99 1 0.220306 0.196891 0.290638
100 1 0.215522 0.233015 0.277623
101 1 0.229981 0.43624 0.233161
102 1 0.234621 0.371361 0.240055
103 1 0.229702 0.199386 0.290545
104 1 0.225101 0.241498 0.285869
105 1 0.239253 0.435348 0.227046
106 1 0.243788 0.369575 0.237889
107 1 0.239155 0.191387 0.279494
108 1 0.234444 0.234811 0.278485
109 1 0.248554 0.435334 0.224385
110 1 0.253162 0.373889 0.242998
111 1 0.248523 0.197859 0.281562
112 1 0.243904 0.230843 0.265888
113 1 0.257935 0.430958 0.226994
114 1 0.262557 0.361219 0.231221
115 1 0.257819 0.195157 0.29324
116 1 0.253193 0.236915 0.283197
117 1 0.267466 0.424546 0.218129
118 1 0.271881 0.366784 0.237612
119 1 0.2673 0.191563 0.30188
120 1 0.262485 0.23008 0.285323
121 1 0.276577 0.431739 0.223342
122 1 0.281414 0.373694 0.249306
123 1 0.276642 0.203112 0.310012
124 1 0.272026 0.236341 0.291777
125 1 0.286143 0.43502 0.229555
126 1 0.290689 0.370472 0.25128
127 1 0.28591 0.20204 0.309622
128 1 0.2813 0.241099 0.292651
129 1 0.295469 0.426838 0.227643
130 1 0.300281 0.367013 0.256245
131 1 0.295462 0.195536 0.313359
132 1 0.290837 0.236163 0.298124
133 1 0.305015 0.423565 0.22224
134 1 0.309737 0.3645 0.248971
135 1 0.305009 0.198067 0.314042
136 1 0.300226 0.235845 0.30279
137 1 0.314324 0.427855 0.226988
138 1 0.319269 0.371251 0.258467
139 1 0.314717 0.196387 0.321632
140 1 0.309897 0.231535 0.296739
141 1 0.324047 0.435805 0.241534
142 1 0.32882 0.37905 0.270884
143 1 0.324042 0.215733 0.345742
144 1 0.319331 0.239592 0.313266
145 1 0.333562 0.435723 0.245632
146 1 0.338314 0.380114 0.279389
147 1 0.333597 0.218695 0.354543
148 1 0.328737 0.252015 0.333246
149 1 0.34295 0.43583 0.249895
150 1 0.34761 0.374277 0.276476
151 1 0.342983 0.214657 0.353734
152 1 0.338314 0.255556 0.343169
153 1 0.352305 0.437845 0.25761
154 1 0.357022 0.384964 0.286882
155 1 0.352365 0.210095 0.341674
156 1 0.347566 0.241 0.327487
157 1 0.361799 0.445877 0.261698
158 1 0.366483 0.385206 0.287977
159 1 0.361712 0.212339 0.351628
160 1 0.356935 0.256191 0.335332
161 1 0.371253 0.447729 0.272087
162 1 0.375927 0.385586 0.302061
163 1 0.371047 0.214977 0.362518
164 1 0.366343 0.251801 0.339055
165 1 0.380588 0.446142 0.27083
166 1 0.385229 0.383203 0.307813
167 1 0.380679 0.220171 0.375308
168 1 0.375814 0.250768 0.357087
169 1 0.389811 0.444687 0.275359
170 1 0.394471 0.384413 0.302187
171 1 0.38988 0.224501 0.395418
172 1 0.385267 0.259604 0.371571
173 1 0.39912 0.429448 0.26972
174 1 0.403863 0.373598 0.308095
175 1 0.399006 0.222352 0.395038
176 1 0.394417 0.261802 0.372345
177 1 0.408643 0.432314 0.280687
178 1 0.413251 0.367354 0.316659
179 1 0.408486 0.219126 0.412895
180 1 0.403842 0.252023 0.376446
181 1 0.417951 0.415386 0.280407
182 1 0.422582 0.360438 0.31568
183 1 0.4178 0.214197 0.417391
184 1 0.413095 0.253095 0.398551
185 1 0.427311 0.414484 0.288849
186 1 0.431852 0.365045 0.339621
187 1 0.426916 0.209368 0.42083
188 1 0.422422 0.246728 0.394727
189 1 0.436717 0.416881 0.302639
190 1 0.441292 0.352869 0.343784
191 1 0.436113 0.206444 0.440001
192 1 0.431631 0.241316 0.406707
193 1 0.445899 0.395568 0.313303
194 1 0.450199 0.333043 0.356471
195 1 0.445247 0.194752 0.456945
196 1 0.440779 0.240546 0.431372
197 1 0.455032 0.369185 0.318406
198 1 0.459237 0.305728 0.371115
199 1 0.454123 0.169572 0.469114
200 1 0.449845 0.216203 0.435509
201 1 0.463925 0.348224 0.343775
202 1 0.468225 0.303007 0.398371
203 1 0.463092 0.163648 0.482975
204 1 0.458712 0.201609 0.449735
205 1 0.473264 0.341413 0.394113
206 1 0.47695 0.309994 0.477461
207 1 0.471786 0.173105 0.529849
208 1 0.467724 0.196041 0.472153
209 1 0.481801 0.354428 0.488356
210 1 0.484777 0.345826 0.590745
211 1 0.479368 0.220393 0.652877
212 1 0.476055 0.217525 0.568391
213 1 0.489512 0.386743 0.59473
214 1 0.492138 0.409416 0.705843
215 1 0.486372 0.304378 0.788583
216 1 0.48334 0.272574 0.69758
217 1 0.496614 0.481365 0.714041
218 1 0.498072 0.544719 0.82398
219 1 0.492679 0.429427 0.914221
220 1 0.490375 0.364892 0.820439
221 1 0.501297 0.648814 0.809189
222 1 0.500747 0.773458 0.861756
223 1 0.495313 0.661623 0.976623
224 1 0.495479 0.533152 0.938728
225 1 0.502016 0.880802 0.783044
226 1 0.498185 0.944702 0.721588
227 1 0.49341 0.87355 0.878197
228 1 0.496166 0.784582 0.936024
229 1 0.498792 0.979117 0.589307
230 1 0.494761 0.958003 0.508519
231 1 0.490233 0.947393 0.683921
232 1 0.493354 0.940209 0.771026
233 1 0.495263 0.918944 0.380175
234 1 0.491362 0.86723 0.307216
235 1 0.486853 0.912816 0.472967
236 1 0.490076 0.944843 0.559158
237 1 0.49207 0.789797 0.191471
238 1 0.488184 0.730216 0.123989
239 1 0.483415 0.820517 0.263447
240 1 0.486425 0.870222 0.357255
241 1 0.488719 0.616502 0.0409216
242 1 0.484854 0.524379 0.0157273
243 1 0.480429 0.696795 0.0689981
244 1 0.483241 0.75943 0.148933
245 1 0.48545 0.380865 0.0298121
246 1 0.481661 0.300167 0.0892934
247 1 0.476882 0.467214 0.0263961
248 1 0.479826 0.576069 0.0138535
249 1 0.482803 0.201204 0.178468
250 1 0.479064 0.145652 0.261939
251 1 0.473883 0.256367 0.145894
252 1 0.476785 0.343228 0.0761653
253 1 0.479965 0.0797682 0.376177
254 1 0.476082 0.0298752 0.458005
255 1 0.471339 0.0910354 0.308426
256 1 0.474007 0.160211 0.228817
257 1 0.476734 0.0146576 0.588454
258 1 0.472764 0.0516594 0.67734
259 1 0.467995 -0.00123084 0.517751
260 1 0.470811 0.0156516 0.415116
261 1 0.473836 0.161361 0.765173
262 1 0.472837 0.295351 0.719751
263 1 0.466172 0.182187 0.653911
264 1 0.467609 0.0513552 0.635416
265 1 0.476324 0.395724 0.720872
266 1 0.477599 0.476615 0.616331
267 1 0.470258 0.414624 0.556802
268 1 0.468553 0.31153 0.642367
269 1 0.482152 0.53425 0.592439
270 1 0.484305 0.570936 0.483634
271 1 0.477104 0.558118 0.42175
272 1 0.47418 0.492482 0.519043
273 1 0.48955 0.587427 0.472374
274 1 0.492733 0.579528 0.36787
275 1 0.485977 0.619752 0.28243
276 1 0.481928 0.593558 0.370837
277 1 0.497817 0.58287 0.365164
278 1 0.501644 0.542457 0.279245
279 1 0.495376 0.525732 0.179609
280 1 0.491169 0.593548 0.243675
281 1 0.507025 0.556165 0.287235
282 1 0.510918 0.488712 0.224592
283 1 0.504695 0.402117 0.13256
284 1 0.500232 0.465894 0.172722
285 1 0.516153 0.513731 0.260118
286 1 0.52052 0.456621 0.214398
287 1 0.514897 0.344033 0.104992
288 1 0.509919 0.390905 0.133027
289 1 0.525612 0.498496 0.244189
290 1 0.530001 0.434254 0.206112
291 1 0.524552 0.3065 0.101151
292 1 0.519846 0.355051 0.125197
293 1 0.535141 0.47771 0.236131
294 1 0.53977 0.409749 0.20111
295 1 0.534104 0.271326 0.102924
296 1 0.529539 0.318181 0.131341
297 1 0.544784 0.461634 0.23173
298 1 0.549142 0.398679 0.190981
299 1 0.543927 0.256024 0.100606
300 1 0.539128 0.297156 0.121313
301 1 0.553911 0.459222 0.214212
302 1 0.558578 0.392138 0.180018
303 1 0.553473 0.235361 0.0954569
304 1 0.548757 0.281805 0.120255
305 1 0.563612 0.448489 0.206031
306 1 0.568168 0.382638 0.17794
307 1 0.562919 0.226172 0.0938372
308 1 0.558292 0.262779 0.116374
309 1 0.57293 0.437275 0.203442
310 1 0.577334 0.374261 0.179317
311 1 0.572457 0.217269 0.0931289
312 1 0.56763 0.261993 0.108425
313 1 0.582181 0.426124 0.211526
314 1 0.586741 0.370381 0.178655
315 1 0.581978 0.216342 0.0891197
316 1 0.57742 0.249198 0.11498
317 1 0.591594 0.43254 0.204551
318 1 0.596121 0.368747 0.176127
319 1 0.591264 0.200762 0.0973679
320 1 0.586617 0.246595 0.106787
321 1 0.601022 0.427228 0.205861
322 1 0.605647 0.370329 0.170602
323 1 0.600697 0.206729 0.0894923
324 1 0.596016 0.238678 0.108077
325 1 0.610404 0.432203 0.185665
326 1 0.615117 0.370876 0.163119
327 1 0.610248 0.203838 0.0978472
328 1 0.605439 0.236789 0.111004
329 1 0.619717 0.430272 0.190041
330 1 0.624563 0.374928 0.16438
331 1 0.619834 0.206126 0.10298
332 1 0.614974 0.241738 0.107675
333 1 0.629254 0.430386 0.193496
334 1 0.633965 0.369139 0.168945
335 1 0.629258 0.207984 0.100316
336 1 0.624612 0.243043 0.116366
337 1 0.638833 0.429327 0.19634
338 1 0.643363 0.369535 0.166249
339 1 0.638637 0.198473 0.100688
340 1 0.634046 0.238284 0.118205
341 1 0.648085 0.432773 0.191889
342 1 0.652652 0.374472 0.162043
343 1 0.647977 0.210476 0.0834249
344 1 0.643198 0.241515 0.11046
345 1 0.657479 0.429316 0.19096
346 1 0.662054 0.374506 0.156425
347 1 0.657521 0.224505 0.0637555
348 1 0.652711 0.244778 0.0981011
349 1 0.666761 0.434934 0.1941
350 1 0.671532 0.375691 0.159351
351 1 0.666862 0.224192 0.0684586
352 1 0.662145 0.261732 0.0789229
353 1 0.676423 0.440479 0.186331
354 1 0.681134 0.378565 0.16719
355 1 0.676309 0.215703 0.083553
356 1 0.671551 0.252654 0.098915
357 1 0.685735 0.439931 0.193629
358 1 0.690247 0.378866 0.171057
359 1 0.685726 0.212513 0.0949959
360 1 0.680965 0.25189 0.111568
361 1 0.694881 0.438731 0.202604
362 1 0.699657 0.381465 0.173459
363 1 0.695045 0.21396 0.104697
364 1 0.690282 0.250168 0.120034
365 1 0.704342 0.44193 0.199096
366 1 0.708928 0.38243 0.187876
367 1 0.704537 0.202322 0.117696
368 1 0.699756 0.244511 0.125537
369 1 0.713898 0.442395 0.215906
370 1 0.718583 0.382768 0.203829
371 1 0.714068 0.204643 0.124854
372 1 0.709233 0.24147 0.134478
373 1 0.723306 0.446853 0.22453
374 1 0.728179 0.394783 0.193711
375 1 0.723239 0.215702 0.137552
376 1 0.718663 0.25099 0.146849
377 1 0.732845 0.456345 0.208198
378 1 0.737553 0.40114 0.183472
379 1 0.732606 0.221041 0.133812
380 1 0.727893 0.26066 0.148418
381 1 0.742223 0.462733 0.204799
382 1 0.746657 0.396795 0.18783
383 1 0.742231 0.228618 0.127669
384 1 0.73745 0.271769 0.141002
385 1 0.75136 0.455736 0.220979
386 1 0.756074 0.397464 0.204748
387 1 0.751653 0.224456 0.123733
388 1 0.746962 0.261452 0.139391
389 1 0.760856 0.456601 0.220128
390 1 0.765508 0.394151 0.200437
391 1 0.761162 0.227603 0.146466
392 1 0.756462 0.263476 0.150603
393 1 0.770355 0.458716 0.220183
394 1 0.775267 0.394882 0.200668
395 1 0.770181 0.220213 0.137819
396 1 0.765828 0.260431 0.160143
397 1 0.7799 0.457724 0.225245
398 1 0.784483 0.399771 0.202327
399 1 0.779776 0.222156 0.154077
400 1 0.77494 0.257918 0.149646
401 1 0.789232 0.45826 0.221341
402 1 0.793914 0.39089 0.206405
403 1 0.789183 0.21959 0.162547
404 1 0.784458 0.263156 0.165175
405 1 0.798552 0.449756 0.224784
406 1 0.803568 0.384583 0.210935
407 1 0.798632 0.217729 0.159105
408 1 0.793898 0.254374 0.167964
409 1 0.808077 0.449858 0.231513
410 1 0.812855 0.386124 0.218939
411 1 0.808027 0.210539 0.156833
412 1 0.803327 0.253044 0.169342
413 1 0.817469 0.447334 0.237054
414 1 0.822016 0.380349 0.207693
415 1 0.817279 0.208861 0.172951
416 1 0.812646 0.249594 0.179581
417 1 0.826683 0.446661 0.222511
418 1 0.831435 0.381467 0.199468
419 1 0.826753 0.201258 0.152402
420 1 0.822001 0.24465 0.17123
421 1 0.836454 0.441015 0.215827
422 1 0.84089 0.377783 0.197711
423 1 0.83611 0.207337 0.138509
424 1 0.831507 0.245142 0.158388
425 1 0.845737 0.441397 0.210758
426 1 0.850497 0.375723 0.197244
427 1 0.845636 0.20186 0.150656
428 1 0.841032 0.245114 0.155099
429 1 0.855137 0.447079 0.205393
430 1 0.859657 0.38106 0.186906
431 1 0.855012 0.196903 0.1646
432 1 0.85019 0.239938 0.168306
433 1 0.864261 0.442993 0.19709
434 1 0.86881 0.382492 0.197199
435 1 0.86426 0.194332 0.177454
436 1 0.859582 0.23937 0.165947
437 1 0.873596 0.440566 0.207607
438 1 0.878193 0.365841 0.199529
439 1 0.873394 0.181843 0.180751
440 1 0.86887 0.233517 0.195625
441 1 0.883092 0.427953 0.207437
442 1 0.88766 0.357581 0.192464
443 1 0.882875 0.175421 0.179038
444 1 0.878261 0.221604 0.183993
445 1 0.89265 0.421805 0.205343
446 1 0.897415 0.354762 0.193885
447 1 0.892467 0.173746 0.176959
448 1 0.887778 0.213404 0.174709
449 1 0.902064 0.418987 0.214246
450 1 0.906591 0.351714 0.208537
451 1 0.901882 0.172538 0.183744
452 1 0.897131 0.213764 0.181197
453 1 0.911319 0.420772 0.216846
454 1 0.915943 0.352106 0.213653
455 1 0.911216 0.174356 0.19374
456 1 0.906525 0.212619 0.195094
457 1 0.920734 0.424676 0.212099
458 1 0.925399 0.353054 0.211832
459 1 0.920543 0.171576 0.205552
460 1 0.916039 0.212803 0.20482
461 1 0.930156 0.415556 0.232909
462 1 0.934953 0.343326 0.239756
463 1 0.930106 0.165829 0.220534
464 1 0.925409 0.212645 0.212639
465 1 0.939557 0.410879 0.246317
466 1 0.944271 0.345919 0.230307
467 1 0.939643 0.164802 0.224894
468 1 0.934972 0.204609 0.229362
469 1 0.949022 0.417065 0.222525
470 1 0.953855 0.357052 0.231305
471 1 0.949057 0.16371 0.232161
472 1 0.944378 0.204246 0.227566
473 1 0.958304 0.426472 0.236656
474 1 0.96304 0.357951 0.240159
475 1 0.958538 0.169163 0.239314
476 1 0.953852 0.205957 0.229523
477 1 0.967577 0.421532 0.247769
478 1 0.972486 0.351554 0.252582
479 1 0.967827 0.169263 0.245563
480 1 0.963114 0.214103 0.240475
481 1 0.977071 0.428631 0.246592
482 1 0.98168 0.359963 0.237949
483 1 0.97718 0.168431 0.242787
484 1 0.972502 0.210737 0.244255
485 1 0.986431 0.421198 0.233861
486 1 0.99107 0.352646 0.230246
487 1 0.986424 0.176269 0.231698
488 1 0.981678 0.217954 0.235872
489 1 0.0133195 0.798652 0.22942
490 1 0.0179882 0.762242 0.231194
491 1 0.013519 0.552303 0.231729
492 1 0.00886163 0.616782 0.229714
493 1 0.0227076 0.807465 0.220202
494 1 0.0275063 0.770477 0.214267
495 1 0.0228878 0.558134 0.225857
496 1 0.0181195 0.620898 0.233547
497 1 0.0323049 0.812339 0.206988
498 1 0.036847 0.772888 0.199856
499 1 0.0321811 0.561444 0.213079
500 1 0.0275468 0.624034 0.218563
501 1 0.0413468 0.817066 0.193488
502 1 0.0461719 0.777338 0.201781
503 1 0.0415998 0.568006 0.211709
504 1 0.0367847 0.63218 0.205722
505 1 0.0508902 0.819755 0.19107
506 1 0.055632 0.775287 0.189418
507 1 0.0510357 0.570866 0.211793
508 1 0.0463375 0.632179 0.203986
509 1 0.0606248 0.818841 0.1877
510 1 0.0652729 0.772235 0.198424
511 1 0.0604182 0.569326 0.223827
512 1 0.0558091 0.633207 0.205709
513 1 0.069844 0.82042 0.192791
514 1 0.0746133 0.778935 0.204385
515 1 0.070017 0.568653 0.233867
516 1 0.0652218 0.63218 0.224001
517 1 0.0792525 0.821566 0.197199
518 1 0.0839921 0.786377 0.208145
519 1 0.0794259 0.572597 0.236413
520 1 0.0746978 0.639899 0.229366
521 1 0.0888354 0.832283 0.19988
522 1 0.093557 0.794314 0.211896
523 1 0.0888995 0.582546 0.241693
524 1 0.0843335 0.641928 0.232857
525 1 0.0984175 0.835485 0.203482
526 1 0.103078 0.784191 0.211127
527 1 0.0983672 0.579664 0.236463
528 1 0.0936678 0.651065 0.234572
529 1 0.107782 0.825582 0.209951
530 1 0.112417 0.782605 0.217919
531 1 0.107719 0.583662 0.260239
532 1 0.103123 0.648664 0.240279
533 1 0.117065 0.824851 0.207244
534 1 0.121796 0.787215 0.221572
535 1 0.117032 0.58259 0.259681
536 1 0.112403 0.647655 0.246462
537 1 0.126428 0.829515 0.220511
538 1 0.131031 0.795273 0.226582
539 1 0.126555 0.582861 0.25264
540 1 0.121677 0.647797 0.246999
541 1 0.135917 0.833233 0.216544
542 1 0.140625 0.796511 0.219318
543 1 0.136062 0.585197 0.238338
544 1 0.131457 0.652274 0.244954
545 1 0.145419 0.830885 0.221492
546 1 0.150003 0.788946 0.226297
547 1 0.145343 0.585086 0.23934
548 1 0.140603 0.646357 0.229715
549 1 0.154765 0.829283 0.220147
550 1 0.159433 0.784453 0.216547
551 1 0.154796 0.578188 0.235569
552 1 0.149984 0.647569 0.232448
553 1 0.164094 0.825301 0.206909
554 1 0.168722 0.786531 0.204136
555 1 0.164101 0.583052 0.239461
556 1 0.159357 0.644742 0.229847
557 1 0.173395 0.831538 0.196916
558 1 0.178244 0.794685 0.199391
559 1 0.173587 0.585325 0.233161
560 1 0.168639 0.650721 0.227086
561 1 0.183018 0.835447 0.190889
562 1 0.187645 0.794894 0.194374
563 1 0.182922 0.588351 0.228749
564 1 0.178183 0.654444 0.221917
565 1 0.192422 0.830447 0.181139
566 1 0.196897 0.781282 0.17741
567 1 0.192403 0.58513 0.22538
568 1 0.187845 0.654142 0.217061
569 1 0.20185 0.820705 0.157238
570 1 0.206674 0.782564 0.16318
571 1 0.201957 0.579196 0.207687
572 1 0.197247 0.646119 0.20404
573 1 0.211437 0.821474 0.163683
574 1 0.216251 0.777741 0.165862
575 1 0.211101 0.578615 0.210367
576 1 0.206714 0.644373 0.196665
577 1 0.220753 0.816875 0.150453
578 1 0.225434 0.776276 0.161281
579 1 0.220536 0.574727 0.203954
580 1 0.215902 0.639122 0.187964
581 1 0.230178 0.812174 0.146405
582 1 0.234879 0.773888 0.161783
583 1 0.229679 0.569399 0.206172
584 1 0.225061 0.636082 0.191583
585 1 0.239342 0.814969 0.144632
586 1 0.244086 0.772425 0.143001
587 1 0.239401 0.569908 0.198034
588 1 0.234597 0.634655 0.193447
589 1 0.248776 0.812505 0.129272
590 1 0.253479 0.767566 0.138535
591 1 0.248582 0.572527 0.191682
592 1 0.243907 0.633702 0.183164
593 1 0.258207 0.807554 0.121085
594 1 0.263007 0.762927 0.13668
595 1 0.25809 0.564574 0.200551
596 1 0.253471 0.633259 0.178726
597 1 0.267531 0.803941 0.123191
598 1 0.272217 0.762709 0.132235
599 1 0.267395 0.563077 0.191052
600 1 0.262819 0.627059 0.177391
601 1 0.276816 0.803721 0.117745
602 1 0.281468 0.768864 0.126387
603 1 0.276641 0.564563 0.187533
604 1 0.272016 0.629463 0.172579
605 1 0.286237 0.79247 0.106057
606 1 0.290867 0.751075 0.107335
607 1 0.286148 0.564528 0.185738
608 1 0.281444 0.631228 0.170333
609 1 0.295679 0.78746 0.0964534
610 1 0.300419 0.753868 0.112219
611 1 0.295547 0.55974 0.18266
612 1 0.290928 0.62121 0.155874
613 1 0.304956 0.78788 0.0913328
614 1 0.309805 0.749031 0.0965434
615 1 0.304957 0.555106 0.173714
616 1 0.30032 0.620898 0.161
617 1 0.314468 0.781234 0.0761404
618 1 0.319183 0.739454 0.0894149
619 1 0.314433 0.552073 0.169833
620 1 0.309662 0.61623 0.144626
621 1 0.323832 0.771756 0.0726973
622 1 0.328572 0.736637 0.0834591
623 1 0.32384 0.561938 0.182593
624 1 0.319271 0.614544 0.150597
625 1 0.333387 0.775189 0.0678504
626 1 0.338169 0.744943 0.0948271
627 1 0.333514 0.553179 0.176463
628 1 0.328662 0.615228 0.146832
629 1 0.343032 0.771359 0.0843268
630 1 0.347721 0.7291 0.0998355
631 1 0.342986 0.557392 0.19555
632 1 0.33817 0.615017 0.155699
633 1 0.35239 0.763871 0.0749776
634 1 0.357226 0.730785 0.0860564
635 1 0.352503 0.55708 0.196443
636 1 0.347648 0.603825 0.16385
637 1 0.361945 0.765658 0.0659567
638 1 0.366589 0.731927 0.0924781
639 1 0.361753 0.57032 0.201587
640 1 0.356979 0.614997 0.166799
641 1 0.37131 0.771302 0.0751615
642 1 0.376077 0.743562 0.10071
643 1 0.371269 0.56979 0.205843
644 1 0.366443 0.624569 0.172277
645 1 0.380756 0.769509 0.0695784
646 1 0.385323 0.731557 0.0868893
647 1 0.380737 0.56872 0.209054
648 1 0.376126 0.626577 0.176583
649 1 0.390229 0.763653 0.0622919
650 1 0.394876 0.718292 0.0827153
651 1 0.389938 0.561729 0.199079
652 1 0.385265 0.618657 0.168718
653 1 0.399567 0.742605 0.0674994
654 1 0.404158 0.708541 0.0876541
655 1 0.399272 0.544911 0.196963
656 1 0.394599 0.607421 0.165074
657 1 0.408986 0.737663 0.069463
658 1 0.413899 0.710852 0.0984917
659 1 0.408953 0.547639 0.21371
660 1 0.404264 0.593939 0.166351
661 1 0.418744 0.736839 0.0701138
662 1 0.423466 0.697752 0.0960352
663 1 0.418279 0.53325 0.20818
664 1 0.413667 0.593891 0.170514
665 1 0.428138 0.732984 0.0935148
666 1 0.432871 0.700874 0.113888
667 1 0.427677 0.526675 0.207725
668 1 0.422915 0.581176 0.169228
669 1 0.437762 0.727625 0.0938435
670 1 0.442352 0.684609 0.11225
671 1 0.437121 0.515728 0.213967
672 1 0.432681 0.575955 0.181083
673 1 0.447321 0.714117 0.10592
674 1 0.451711 0.668583 0.138868
675 1 0.44631 0.503927 0.231031
676 1 0.442133 0.561169 0.183164
677 1 0.456884 0.687207 0.128321
678 1 0.461554 0.628886 0.142375
679 1 0.455808 0.470058 0.234685
680 1 0.451394 0.541407 0.195733
681 1 0.466535 0.649012 0.141822
682 1 0.471195 0.59394 0.164091
683 1 0.465147 0.445275 0.256983
684 1 0.460771 0.507291 0.209269
685 1 0.476349 0.578913 0.181458
686 1 0.481845 0.492606 0.184844
687 1 0.474258 0.419684 0.297429
688 1 0.47004 0.480074 0.238487
689 1 0.486738 0.437985 0.205316
690 1 0.491193 0.394277 0.276228
691 1 0.483724 0.398952 0.37871
692 1 0.479463 0.429724 0.285577
693 1 0.496096 0.383033 0.310733
694 1 0.500142 0.395568 0.40038
695 1 0.491944 0.398662 0.488888
696 1 0.488855 0.399341 0.383348
697 1 0.504772 0.443324 0.4357
698 1 0.507238 0.514652 0.519518
699 1 0.499196 0.47891 0.608203
700 1 0.497043 0.418142 0.500165
701 1 0.510975 0.608582 0.549249
702 1 0.512423 0.723138 0.622368
703 1 0.504939 0.641794 0.715656
704 1 0.5039 0.548351 0.617719
705 1 0.514359 0.851642 0.620022
706 1 0.512919 0.981574 0.573121
707 1 0.506805 0.884194 0.722151
708 1 0.508232 0.746134 0.705289
709 1 0.512092 1.01058 0.448083
710 1 0.50883 0.976229 0.354616
711 1 0.503504 0.985162 0.536642
712 1 0.507693 0.975102 0.623833
713 1 0.508518 0.889123 0.252708
714 1 0.505651 0.812996 0.182435
715 1 0.500021 0.913511 0.331868
716 1 0.503865 0.962036 0.40889
717 1 0.505488 0.708709 0.0994924
718 1 0.502526 0.630312 0.0290414
719 1 0.496797 0.762761 0.154381
720 1 0.500677 0.836686 0.219925
721 1 0.50216 0.505204 -0.013759
722 1 0.499312 0.398126 -0.00309494
723 1 0.493452 0.581023 0.00689955
724 1 0.497408 0.665639 0.0563538
725 1 0.498837 0.291545 0.0750573
726 1 0.496143 0.221794 0.158137
727 1 0.490477 0.343826 0.0392358
728 1 0.49425 0.430924 -0.00515348
729 1 0.496216 0.153941 0.270467
730 1 0.493432 0.120061 0.375285
731 1 0.487764 0.188196 0.210805
732 1 0.491345 0.24074 0.132912
733 1 0.493326 0.0939603 0.50146
734 1 0.490038 0.0792202 0.591861
735 1 0.484623 0.0878808 0.414097
736 1 0.488562 0.133059 0.333892
737 1 0.489928 0.0870921 0.713234
738 1 0.487223 0.087398 0.817645
739 1 0.481475 0.0287622 0.636552
740 1 0.485406 0.0603443 0.539788
741 1 0.486924 0.160253 0.918117
742 1 0.484495 0.266286 0.968018
743 1 0.478578 0.157966 0.829796
744 1 0.482332 0.0642638 0.767253
745 1 0.485948 0.392471 0.983141
746 1 0.485673 0.514191 0.921677
747 1 0.479618 0.39186 0.815414
748 1 0.480294 0.269062 0.887238
749 1 0.488898 0.609807 0.896476
750 1 0.49089 0.668933 0.796483
751 1 0.484674 0.549092 0.699853
752 1 0.483058 0.490523 0.814065
753 1 0.494917 0.728457 0.753572
754 1 0.497864 0.746171 0.659808
755 1 0.49186 0.615179 0.58203
756 1 0.489159 0.604029 0.691914
757 1 0.501803 0.794275 0.612819
758 1 0.505053 0.786281 0.530667
759 1 0.499602 0.63983 0.46777
760 1 0.496512 0.659494 0.565836
761 1 0.509133 0.832624 0.489915
762 1 0.513511 0.811493 0.437299
763 1 0.508265 0.643109 0.376857
764 1 0.504393 0.684577 0.451039
765 1 0.518091 0.836469 0.453429
766 1 0.522574 0.800168 0.425998
767 1 0.516966 0.627261 0.336069
768 1 0.512934 0.689979 0.383221
769 1 0.527304 0.836665 0.427624
770 1 0.531731 0.790045 0.402815
771 1 0.526401 0.612989 0.312161
772 1 0.521933 0.674558 0.356239
773 1 0.536614 0.824237 0.401667
774 1 0.54103 0.780873 0.376368
775 1 0.535705 0.594385 0.307244
776 1 0.531108 0.65536 0.346046
777 1 0.54562 0.821665 0.383736
778 1 0.55026 0.780628 0.366244
779 1 0.54493 0.586764 0.295455
780 1 0.540475 0.644759 0.329739
781 1 0.554987 0.814135 0.358307
782 1 0.559405 0.764348 0.339363
783 1 0.554258 0.580218 0.282571
784 1 0.549811 0.644716 0.318333
785 1 0.564039 0.806266 0.352161
786 1 0.568569 0.760312 0.340007
787 1 0.563479 0.575051 0.256568
788 1 0.559094 0.634049 0.299367
789 1 0.573234 0.797816 0.352315
790 1 0.577745 0.751405 0.33696
791 1 0.57307 0.563423 0.261255
792 1 0.568243 0.629053 0.281648
793 1 0.582412 0.791041 0.34697
794 1 0.587014 0.75095 0.332045
795 1 0.582127 0.55363 0.265392
796 1 0.577639 0.620197 0.291365
797 1 0.591772 0.78124 0.353954
798 1 0.596583 0.743327 0.339107
799 1 0.591627 0.556156 0.263306
800 1 0.587 0.611882 0.283969
801 1 0.601208 0.78299 0.357581
802 1 0.605778 0.738295 0.347367
803 1 0.60101 0.550952 0.269188
804 1 0.596256 0.614335 0.292478
805 1 0.610596 0.772022 0.367666
806 1 0.615359 0.73327 0.343982
807 1 0.61054 0.554702 0.251349
808 1 0.605686 0.611663 0.286892
809 1 0.619986 0.771072 0.362085
810 1 0.624588 0.738002 0.341937
811 1 0.619839 0.548932 0.249579
812 1 0.615157 0.607509 0.277673
813 1 0.629393 0.778958 0.345096
814 1 0.634183 0.746221 0.33541
815 1 0.629149 0.554099 0.256953
816 1 0.624424 0.609882 0.286984
817 1 0.638844 0.784259 0.352861
818 1 0.643571 0.739586 0.340505
819 1 0.638648 0.551933 0.255327
820 1 0.633971 0.614225 0.28065
821 1 0.648309 0.770404 0.361254
822 1 0.652909 0.733807 0.334816
823 1 0.647967 0.551089 0.255515
824 1 0.643394 0.613681 0.283482
825 1 0.657534 0.78008 0.345198
826 1 0.662079 0.747381 0.32343
827 1 0.657424 0.546911 0.255243
828 1 0.652803 0.605589 0.281662
829 1 0.666653 0.796372 0.336078
830 1 0.671362 0.753229 0.329056
831 1 0.666704 0.557331 0.249617
832 1 0.662067 0.614422 0.277436
833 1 0.676017 0.788307 0.348381
834 1 0.680519 0.746538 0.332073
835 1 0.676129 0.565519 0.238688
836 1 0.671343 0.625989 0.268481
837 1 0.685139 0.784325 0.360638
838 1 0.68977 0.749459 0.339194
839 1 0.685549 0.569809 0.245576
840 1 0.680879 0.622461 0.269417
841 1 0.694576 0.791207 0.350443
842 1 0.699127 0.76132 0.324146
843 1 0.694977 0.568128 0.254397
844 1 0.690269 0.625152 0.281369
845 1 0.703975 0.797435 0.340764
846 1 0.708865 0.762084 0.326022
847 1 0.704189 0.568636 0.25218
848 1 0.699466 0.630256 0.275007
849 1 0.713619 0.808032 0.344592
850 1 0.718299 0.77133 0.333741
851 1 0.713662 0.5756 0.260006
852 1 0.708896 0.628062 0.277453
853 1 0.723034 0.811751 0.349451
854 1 0.727691 0.773553 0.330263
855 1 0.723151 0.578127 0.265659
856 1 0.718289 0.639757 0.281505
857 1 0.732385 0.816691 0.342004
858 1 0.736898 0.780337 0.327251
859 1 0.732693 0.585361 0.259444
860 1 0.727895 0.64112 0.283857
861 1 0.741786 0.815923 0.347171
862 1 0.746562 0.782115 0.32509
863 1 0.741975 0.589545 0.255853
864 1 0.73739 0.645564 0.278242
865 1 0.751346 0.82799 0.33777
866 1 0.756187 0.790108 0.314173
867 1 0.751308 0.591814 0.254313
868 1 0.746789 0.653185 0.275764
869 1 0.760936 0.825424 0.329609
870 1 0.765636 0.784193 0.31548
871 1 0.760741 0.594438 0.255883
872 1 0.756091 0.654174 0.269321
873 1 0.770352 0.821397 0.331402
874 1 0.775159 0.782447 0.319713
875 1 0.770553 0.586452 0.263471
876 1 0.765792 0.646329 0.280801
877 1 0.779955 0.822979 0.336596
878 1 0.784682 0.791661 0.320075
879 1 0.779836 0.590342 0.26498
880 1 0.775282 0.649416 0.282968
881 1 0.789628 0.829311 0.329722
882 1 0.794201 0.789522 0.315254
883 1 0.789454 0.588863 0.263877
884 1 0.784693 0.655546 0.281353
885 1 0.798862 0.823704 0.325751
886 1 0.803574 0.784906 0.312543
887 1 0.79883 0.586222 0.26334
888 1 0.794269 0.64901 0.284285
889 1 0.808316 0.820873 0.326995
890 1 0.813012 0.77791 0.326953
891 1 0.808302 0.584592 0.262219
892 1 0.803516 0.646303 0.278324
893 1 0.817526 0.815397 0.345339
894 1 0.822313 0.78017 0.324138
895 1 0.817479 0.579936 0.274479
896 1 0.812868 0.646845 0.283329
897 1 0.827091 0.821295 0.332436
898 1 0.831738 0.781817 0.314567
899 1 0.826798 0.582286 0.253675
900 1 0.822136 0.641898 0.280413
901 1 0.836551 0.821396 0.314534
902 1 0.841028 0.776208 0.30199
903 1 0.836272 0.57563 0.250466
904 1 0.831539 0.646755 0.266761
905 1 0.845688 0.817305 0.315878
906 1 0.85053 0.781374 0.296719
907 1 0.845748 0.578147 0.241742
908 1 0.841243 0.638636 0.261932
909 1 0.855296 0.818392 0.311529
910 1 0.859882 0.779495 0.297081