ITEM: TIMESTEP
500000
ITEM: NUMBER OF ATOMS
976
ITEM: BOX BOUNDS ss ss ss
-0.0238218 281.006
-1.99049 9.11474
-2.31436 9.12413
ITEM: ATOMS id type xs ys zs
1 1 0.00450549 0.435431 0.202439
2 1 0.00884255 0.370231 0.202507
3 1 0.00445742 0.18044 0.202482
4 1 0.0001 0.242209 0.202447
5 1 0.00448377 0.818352 0.202452
6 1 0.00882926 0.75499 0.202463
7 1 0.00442613 0.562804 0.202465
8 1 0.000100751 0.626519 0.202453
9 1 0.0138155 0.431902 0.205891
10 1 0.0186746 0.373141 0.211324
11 1 0.0141178 0.196677 0.209955
12 1 0.00926478 0.229863 0.204306
13 1 0.0231586 0.435918 0.220926
14 1 0.0279187 0.369062 0.22825
15 1 0.02348 0.193353 0.228017
16 1 0.018868 0.239218 0.214581
17 1 0.0325731 0.433189 0.216962
18 1 0.0373411 0.373644 0.228968
19 1 0.0327527 0.194815 0.245245
20 1 0.0282047 0.235217 0.237212
21 1 0.0420997 0.439082 0.224168
22 1 0.0466805 0.381623 0.237592
23 1 0.0420797 0.202977 0.249843
24 1 0.0373268 0.236715 0.244357
25 1 0.0513238 0.445939 0.233101
26 1 0.05611 0.389225 0.24451
27 1 0.0514899 0.214197 0.260848
28 1 0.0467468 0.246999 0.250432
29 1 0.0606873 0.453064 0.231797
30 1 0.0656031 0.392896 0.236816
31 1 0.0608654 0.218645 0.264379
32 1 0.056134 0.258525 0.263422
33 1 0.0701374 0.456227 0.225154
34 1 0.0746586 0.390562 0.241257
35 1 0.070277 0.213201 0.263255
36 1 0.0655631 0.255853 0.256439
37 1 0.0796186 0.454646 0.227795
38 1 0.0844002 0.394484 0.233511
39 1 0.0796546 0.221955 0.248386
40 1 0.0749799 0.25769 0.258747
41 1 0.0890811 0.458238 0.239447
42 1 0.093694 0.396008 0.246605
43 1 0.0893198 0.223301 0.233086
44 1 0.0843926 0.26192 0.235834
45 1 0.0986065 0.455344 0.241841
46 1 0.103391 0.395061 0.247678
47 1 0.0986223 0.220241 0.253365
48 1 0.0939848 0.262184 0.249218
49 1 0.108202 0.453556 0.245307
50 1 0.112859 0.389478 0.253145
51 1 0.10806 0.21883 0.268164
52 1 0.103446 0.260131 0.259854
53 1 0.117608 0.453137 0.243273
54 1 0.122052 0.386992 0.244962
55 1 0.117611 0.213993 0.270943
56 1 0.112874 0.253487 0.267589
57 1 0.127009 0.451222 0.243774
58 1 0.131661 0.390225 0.251244
59 1 0.126925 0.218511 0.266598
60 1 0.122271 0.258973 0.264863
61 1 0.13657 0.452385 0.244703
62 1 0.141307 0.390484 0.257671
63 1 0.136399 0.211843 0.267442
64 1 0.131745 0.253829 0.263434
65 1 0.145883 0.450155 0.24875
66 1 0.150709 0.385327 0.254092
67 1 0.145736 0.219993 0.274349
68 1 0.141089 0.258428 0.272981
69 1 0.155372 0.447657 0.238637
70 1 0.160179 0.381839 0.238022
71 1 0.155114 0.220077 0.274139
72 1 0.15051 0.254061 0.273217
73 1 0.164799 0.445248 0.228374
74 1 0.169465 0.380513 0.242616
75 1 0.164677 0.21191 0.279041
76 1 0.159858 0.249169 0.267277
77 1 0.174234 0.444887 0.233021
78 1 0.178875 0.38661 0.248599
79 1 0.174311 0.214909 0.272891
80 1 0.169559 0.254359 0.271357
81 1 0.183412 0.450888 0.243384
82 1 0.188287 0.385262 0.251925
83 1 0.183756 0.212703 0.285596
84 1 0.179029 0.256624 0.272501
85 1 0.193076 0.44686 0.238212
86 1 0.197929 0.383323 0.252497
87 1 0.193105 0.213108 0.291133
88 1 0.1884 0.253544 0.278278
89 1 0.202485 0.451614 0.25138
90 1 0.207296 0.38679 0.261484
91 1 0.202703 0.213299 0.279665
92 1 0.197965 0.250185 0.28302
93 1 0.211897 0.449323 0.24716
94 1 0.21655 0.38587 0.246481
95 1 0.211897 0.214643 0.271577
96 1 0.207295 0.255951 0.274709
97 1 0.221372 0.453316 0.230195
98 1 0.22607 0.386182 0.239045
99 1 0.221158 0.208268 0.273909
100 1 0.216492 0.255219 0.267086
101 1 0.230805 0.451482 0.240224
102 1 0.235509 0.401848 0.256826
103 1 0.230952 0.227653 0.291254
104 1 0.225983 0.252217 0.271751
105 1 0.240312 0.455025 0.238364
106 1 0.244859 0.393958 0.249202
107 1 0.240134 0.237271 0.304329
108 1 0.235515 0.276991 0.289284
109 1 0.249726 0.453784 0.240444
110 1 0.254373 0.392908 0.258639
111 1 0.249781 0.230299 0.299905
112 1 0.244969 0.264437 0.291549
113 1 0.259319 0.449555 0.240148
114 1 0.263917 0.390582 0.259205
115 1 0.259149 0.224036 0.303667
116 1 0.254629 0.261389 0.293339
117 1 0.268515 0.448425 0.238717
118 1 0.273221 0.38424 0.252671
119 1 0.268596 0.223933 0.315146
120 1 0.26393 0.257092 0.296574
121 1 0.277879 0.43937 0.23059
122 1 0.282647 0.385152 0.256416
123 1 0.27805 0.223492 0.318897
124 1 0.273289 0.259882 0.300747
125 1 0.28729 0.44268 0.236379
126 1 0.291922 0.381998 0.261726
127 1 0.287342 0.226478 0.322155
128 1 0.282625 0.262491 0.305097
129 1 0.296642 0.434066 0.234257
130 1 0.301507 0.379003 0.253888
131 1 0.296557 0.223477 0.327659
132 1 0.291974 0.262073 0.313095
133 1 0.306172 0.437723 0.238583
134 1 0.310805 0.38501 0.266631
135 1 0.30627 0.220113 0.320009
136 1 0.301537 0.253052 0.301167
137 1 0.315738 0.443484 0.253911
138 1 0.320299 0.387373 0.276041
139 1 0.31562 0.213312 0.327754
140 1 0.311089 0.257662 0.309572
141 1 0.32513 0.443917 0.250207
142 1 0.329771 0.379081 0.264534
143 1 0.324971 0.216001 0.332454
144 1 0.320358 0.254987 0.31843
145 1 0.33434 0.434437 0.244927
146 1 0.339093 0.381979 0.269844
147 1 0.334478 0.216365 0.328991
148 1 0.32979 0.251152 0.318538
149 1 0.343809 0.434788 0.236976
150 1 0.348477 0.371686 0.248368
151 1 0.343719 0.216672 0.319931
152 1 0.339102 0.255276 0.313666
153 1 0.353013 0.42451 0.223877
154 1 0.357882 0.366635 0.24729
155 1 0.352924 0.20696 0.303557
156 1 0.348376 0.248793 0.29719
157 1 0.362545 0.423458 0.239118
158 1 0.367154 0.357831 0.260964
159 1 0.362206 0.199035 0.321135
160 1 0.357558 0.238913 0.293602
161 1 0.372087 0.410825 0.238121
162 1 0.376546 0.351576 0.259822
163 1 0.371667 0.197919 0.330814
164 1 0.366979 0.237614 0.312973
165 1 0.381431 0.4055 0.243305
166 1 0.38619 0.345651 0.268604
167 1 0.381289 0.193131 0.344596
168 1 0.376574 0.227095 0.319103
169 1 0.390889 0.407207 0.245726
170 1 0.39577 0.349588 0.267689
171 1 0.3908 0.194333 0.339503
172 1 0.385967 0.224733 0.326527
173 1 0.400461 0.410487 0.244006
174 1 0.404986 0.350142 0.269473
175 1 0.400085 0.193731 0.341846
176 1 0.395604 0.232812 0.325829
177 1 0.409766 0.406018 0.251159
178 1 0.414373 0.344521 0.27406
179 1 0.409277 0.192391 0.343761
180 1 0.404697 0.228375 0.322533
181 1 0.419026 0.394521 0.260647
182 1 0.423635 0.331284 0.294943
183 1 0.418382 0.184083 0.367013
184 1 0.41384 0.229365 0.339957
185 1 0.4284 0.389742 0.275797
186 1 0.433003 0.33357 0.314236
187 1 0.427929 0.174353 0.380342
188 1 0.423225 0.213858 0.356012
189 1 0.437831 0.386588 0.291867
190 1 0.442375 0.330238 0.332342
191 1 0.437128 0.178637 0.408014
192 1 0.432594 0.209982 0.375339
193 1 0.447454 0.380323 0.30165
194 1 0.45168 0.316373 0.341022
195 1 0.446267 0.183489 0.434515
196 1 0.441746 0.217648 0.403208
197 1 0.456461 0.360312 0.314527
198 1 0.460856 0.296654 0.354743
199 1 0.45554 0.162935 0.446997
200 1 0.45102 0.206682 0.410836
201 1 0.465613 0.340634 0.326116
202 1 0.469961 0.291625 0.381941
203 1 0.464757 0.151667 0.456064
204 1 0.460297 0.186385 0.428063
205 1 0.474702 0.333944 0.379397
206 1 0.478538 0.305912 0.459046
207 1 0.473678 0.16921 0.505971
208 1 0.46933 0.18499 0.446805
209 1 0.48299 0.365098 0.480438
210 1 0.485752 0.356011 0.58639
211 1 0.480719 0.215872 0.635042
212 1 0.477616 0.216767 0.544931
213 1 0.490539 0.392694 0.6053
214 1 0.492835 0.405803 0.715464
215 1 0.487213 0.291146 0.777038
216 1 0.484253 0.276192 0.684374
217 1 0.497177 0.474859 0.737163
218 1 0.498716 0.527561 0.847744
219 1 0.493148 0.399706 0.917247
220 1 0.491073 0.350433 0.821745
221 1 0.501638 0.633094 0.849327
222 1 0.500108 0.751093 0.910107
223 1 0.495125 0.615128 0.998253
224 1 0.495737 0.500212 0.951747
225 1 0.501574 0.862535 0.842585
226 1 0.497818 0.912247 0.777192
227 1 0.492936 0.826638 0.919629
228 1 0.495567 0.738187 0.979893
229 1 0.498304 0.953557 0.649233
230 1 0.494566 0.939066 0.563049
231 1 0.48962 0.900169 0.723697
232 1 0.492883 0.885422 0.815717
233 1 0.495772 0.901827 0.431881
234 1 0.49219 0.860951 0.348274
235 1 0.486846 0.878493 0.505534
236 1 0.48953 0.909011 0.602878
237 1 0.493143 0.806784 0.23753
238 1 0.489759 0.751356 0.155097
239 1 0.484362 0.812409 0.295283
240 1 0.487282 0.85472 0.38735
241 1 0.490645 0.657324 0.0664675
242 1 0.486888 0.580023 0.0215831
243 1 0.481844 0.715432 0.0924448
244 1 0.484668 0.771149 0.17722
245 1 0.487707 0.446948 0.0220422
246 1 0.484195 0.355508 0.0652182
247 1 0.479134 0.507351 0.0129611
248 1 0.481785 0.615954 0.0243053
249 1 0.485336 0.261329 0.151577
250 1 0.481799 0.196817 0.21505
251 1 0.476065 0.301019 0.113084
252 1 0.478991 0.382199 0.0518648
253 1 0.482778 0.12806 0.323709
254 1 0.479131 0.0617865 0.398855
255 1 0.473913 0.128373 0.264731
256 1 0.47655 0.201693 0.187865
257 1 0.479974 0.0284793 0.530016
258 1 0.475735 0.0158206 0.614315
259 1 0.471364 -0.000558067 0.440543
260 1 0.474241 0.047171 0.356317
261 1 0.476165 0.0938046 0.720814
262 1 0.473514 0.214077 0.713324
263 1 0.468087 0.103877 0.614887
264 1 0.470761 0.00384685 0.559115
265 1 0.47616 0.326675 0.736162
266 1 0.476803 0.424971 0.642541
267 1 0.469802 0.339208 0.57028
268 1 0.469102 0.23497 0.63794
269 1 0.481228 0.498048 0.633741
270 1 0.483409 0.551484 0.529245
271 1 0.476135 0.506832 0.45442
272 1 0.473256 0.437553 0.544009
273 1 0.488561 0.579298 0.520609
274 1 0.491667 0.60726 0.415679
275 1 0.483936 0.60706 0.341098
276 1 0.480596 0.564351 0.425616
277 1 0.496864 0.617555 0.406362
278 1 0.500406 0.60568 0.312407
279 1 0.493303 0.600452 0.228396
280 1 0.488898 0.617402 0.302741
281 1 0.505656 0.618368 0.318212
282 1 0.509727 0.570299 0.261753
283 1 0.503268 0.489552 0.186483
284 1 0.498524 0.557385 0.200024
285 1 0.515001 0.592617 0.274565
286 1 0.519228 0.535021 0.223041
287 1 0.512858 0.425107 0.130508
288 1 0.50846 0.476584 0.176367
289 1 0.524266 0.573107 0.244334
290 1 0.528767 0.50495 0.204913
291 1 0.522588 0.384901 0.109094
292 1 0.518164 0.431782 0.139214
293 1 0.533633 0.550202 0.230842
294 1 0.538183 0.485021 0.202344
295 1 0.532672 0.355581 0.111833
296 1 0.527851 0.393846 0.131677
297 1 0.543061 0.525031 0.23144
298 1 0.547622 0.462867 0.208275
299 1 0.54212 0.326442 0.111808
300 1 0.5375 0.368772 0.134285
301 1 0.552523 0.507743 0.233967
302 1 0.557131 0.448055 0.19641
303 1 0.551546 0.314267 0.106313
304 1 0.547012 0.353415 0.131902
305 1 0.562109 0.489938 0.231484
306 1 0.566658 0.434691 0.190471
307 1 0.561422 0.290494 0.108348
308 1 0.556612 0.334879 0.122239
309 1 0.571696 0.479578 0.227138
310 1 0.576173 0.416852 0.188318
311 1 0.571226 0.282714 0.0944667
312 1 0.566348 0.318964 0.113621
313 1 0.58101 0.471018 0.218483
314 1 0.585699 0.414809 0.185778
315 1 0.580666 0.274111 0.0970893
316 1 0.575945 0.30611 0.120707
317 1 0.590419 0.471998 0.217146
318 1 0.595051 0.418108 0.188021
319 1 0.590174 0.258862 0.116102
320 1 0.585363 0.303745 0.124227
321 1 0.599909 0.47095 0.214124
322 1 0.60446 0.413515 0.182474
323 1 0.599732 0.265561 0.098784
324 1 0.595094 0.29828 0.126104
325 1 0.609354 0.461864 0.219958
326 1 0.613981 0.414798 0.183522
327 1 0.609387 0.267673 0.0938721
328 1 0.604367 0.298986 0.114747
329 1 0.618592 0.463023 0.21278
330 1 0.623336 0.412868 0.176692
331 1 0.618746 0.263008 0.0921064
332 1 0.614114 0.301892 0.115672
333 1 0.628095 0.470995 0.206244
334 1 0.632789 0.413801 0.175561
335 1 0.628155 0.2579 0.0912553
336 1 0.623582 0.297131 0.106716
337 1 0.637447 0.47207 0.194835
338 1 0.642116 0.413862 0.165466
339 1 0.63746 0.260921 0.0910673
340 1 0.632854 0.29637 0.113359
341 1 0.646773 0.469429 0.193041
342 1 0.651629 0.411846 0.173528
343 1 0.646891 0.253368 0.0877632
344 1 0.642176 0.297178 0.10285
345 1 0.656437 0.467261 0.195682
346 1 0.661247 0.407529 0.169774
347 1 0.656343 0.244719 0.109193
348 1 0.651696 0.287304 0.118169
349 1 0.665984 0.46522 0.195265
350 1 0.670667 0.40838 0.170835
351 1 0.665876 0.244869 0.122882
352 1 0.661067 0.278371 0.124163
353 1 0.675201 0.465614 0.20273
354 1 0.68011 0.405592 0.193325
355 1 0.675218 0.24716 0.126611
356 1 0.670588 0.28125 0.132054
357 1 0.684818 0.458025 0.215266
358 1 0.689539 0.395276 0.197051
359 1 0.684632 0.244136 0.126689
360 1 0.679929 0.282126 0.140876
361 1 0.694182 0.451758 0.217672
362 1 0.698823 0.398706 0.195893
363 1 0.694133 0.237211 0.133342
364 1 0.689421 0.274755 0.150076
365 1 0.703706 0.457475 0.215658
366 1 0.708359 0.397607 0.202994
367 1 0.703428 0.235254 0.143589
368 1 0.69876 0.274701 0.151158
369 1 0.713131 0.459581 0.221104
370 1 0.717693 0.405135 0.197593
371 1 0.713004 0.237352 0.145531
372 1 0.708134 0.271456 0.156528
373 1 0.722457 0.466946 0.220278
374 1 0.727016 0.409145 0.201055
375 1 0.722375 0.238396 0.14567
376 1 0.717697 0.278422 0.159508
377 1 0.731708 0.466987 0.218434
378 1 0.736434 0.406709 0.204032
379 1 0.731759 0.247774 0.13361
380 1 0.727029 0.283023 0.151896
381 1 0.74126 0.47081 0.221059
382 1 0.745933 0.41064 0.194899
383 1 0.74114 0.2531 0.144008
384 1 0.736528 0.283273 0.156566
385 1 0.750633 0.471152 0.210107
386 1 0.755284 0.413469 0.191207
387 1 0.750519 0.248815 0.146824
388 1 0.74583 0.285066 0.156419
389 1 0.760006 0.472825 0.210178
390 1 0.764714 0.414834 0.193356
391 1 0.759853 0.237973 0.156006
392 1 0.755308 0.284603 0.156281
393 1 0.769456 0.476373 0.211257
394 1 0.773996 0.413972 0.195405
395 1 0.769234 0.244561 0.154646
396 1 0.764444 0.283176 0.164044
397 1 0.779155 0.474729 0.207948
398 1 0.783708 0.415262 0.184827
399 1 0.778679 0.245703 0.147734
400 1 0.77405 0.282273 0.162898
401 1 0.788331 0.470851 0.205506
402 1 0.792771 0.407519 0.192331
403 1 0.78794 0.245256 0.134085
404 1 0.783314 0.284617 0.14198
405 1 0.797668 0.469187 0.208347
406 1 0.80247 0.408004 0.196203
407 1 0.797676 0.242319 0.148132
408 1 0.792673 0.279013 0.154263
409 1 0.807177 0.467155 0.219042
410 1 0.811814 0.408047 0.205889
411 1 0.807127 0.240418 0.145934
412 1 0.802367 0.278692 0.155872
413 1 0.816406 0.469237 0.222311
414 1 0.82107 0.412625 0.198039
415 1 0.816472 0.246629 0.15013
416 1 0.811751 0.282425 0.163583
417 1 0.825857 0.46453 0.216549
418 1 0.830476 0.404498 0.208911
419 1 0.825736 0.243037 0.153417
420 1 0.821169 0.288868 0.157189
421 1 0.835247 0.460126 0.214193
422 1 0.839958 0.402088 0.198535
423 1 0.834942 0.231205 0.164263
424 1 0.830477 0.274922 0.174535
425 1 0.844747 0.456839 0.219511
426 1 0.84933 0.397084 0.199967
427 1 0.84454 0.223725 0.161191
428 1 0.839661 0.265941 0.172946
429 1 0.854024 0.463201 0.207517
430 1 0.858719 0.405333 0.181747
431 1 0.854108 0.23391 0.155559
432 1 0.849251 0.267826 0.169787
433 1 0.863503 0.469334 0.192623
434 1 0.868223 0.406397 0.176116
435 1 0.863411 0.236175 0.143013
436 1 0.858725 0.273019 0.156866
437 1 0.872965 0.465663 0.194578
438 1 0.877759 0.404397 0.189313
439 1 0.872992 0.237407 0.147816
440 1 0.868213 0.272873 0.151356
441 1 0.88256 0.466597 0.209642
442 1 0.88717 0.407428 0.203378
443 1 0.882373 0.238704 0.158728
444 1 0.877626 0.278074 0.157853
445 1 0.891859 0.46639 0.223305
446 1 0.896622 0.402052 0.215765
447 1 0.891764 0.233782 0.169076
448 1 0.887049 0.277171 0.167258
449 1 0.901118 0.462803 0.227264
450 1 0.905682 0.399157 0.22158
451 1 0.901183 0.226945 0.188199
452 1 0.896347 0.268716 0.186638
453 1 0.910634 0.463257 0.231411
454 1 0.915388 0.398617 0.223149
455 1 0.910611 0.229629 0.205228
456 1 0.905847 0.267955 0.20036
457 1 0.920096 0.457655 0.226234
458 1 0.924794 0.39323 0.219831
459 1 0.919667 0.227307 0.212818
460 1 0.915102 0.269343 0.215584
461 1 0.929363 0.452916 0.228823
462 1 0.934119 0.392476 0.227172
463 1 0.929281 0.220088 0.205939
464 1 0.924451 0.258782 0.208857
465 1 0.938848 0.461843 0.227712
466 1 0.943479 0.399724 0.21541
467 1 0.938848 0.223598 0.201086
468 1 0.934124 0.254235 0.211997
469 1 0.948312 0.464212 0.218553
470 1 0.953053 0.394423 0.209262
471 1 0.948331 0.22754 0.193511
472 1 0.943511 0.267369 0.201663
473 1 0.957901 0.453827 0.209594
474 1 0.962378 0.387455 0.209996
475 1 0.957607 0.214166 0.197434
476 1 0.952967 0.259877 0.199452
477 1 0.967146 0.453449 0.207839
478 1 0.971749 0.386174 0.206894
479 1 0.967143 0.211687 0.206104
480 1 0.962454 0.251442 0.204188
481 1 0.976762 0.445317 0.212342
482 1 0.981314 0.382293 0.211321
483 1 0.976585 0.211485 0.207945
484 1 0.971979 0.249331 0.202591
485 1 0.986152 0.439974 0.207307
486 1 0.990877 0.375401 0.203757
487 1 0.986145 0.209262 0.205182
488 1 0.981312 0.248528 0.209282
489 1 0.0135642 0.795517 0.202946
490 1 0.0183186 0.761222 0.204688
491 1 0.0137673 0.563468 0.205213
492 1 0.00902439 0.624205 0.203235
493 1 0.0228777 0.800069 0.198611
494 1 0.0276168 0.76221 0.204491
495 1 0.0232902 0.568594 0.214516
496 1 0.0184522 0.628082 0.206999
497 1 0.0323362 0.807548 0.200902
498 1 0.0370553 0.766231 0.197254
499 1 0.032585 0.566099 0.202099
500 1 0.0278978 0.630907 0.204239
501 1 0.0417501 0.802681 0.189632
502 1 0.0464437 0.768994 0.190052
503 1 0.0419465 0.567745 0.20206
504 1 0.0372322 0.633592 0.20082
505 1 0.0512271 0.813718 0.17894
506 1 0.0561267 0.775398 0.17376
507 1 0.0513951 0.577799 0.205718
508 1 0.0466516 0.638734 0.201024
509 1 0.0606722 0.820224 0.169869
510 1 0.0653992 0.777397 0.182916
511 1 0.0608828 0.580733 0.203069
512 1 0.0562114 0.642094 0.196117
513 1 0.0701751 0.816119 0.178539
514 1 0.0749121 0.782429 0.181923
515 1 0.0702723 0.583904 0.204316
516 1 0.0654364 0.644257 0.193995
517 1 0.0796938 0.817439 0.189375
518 1 0.0843797 0.781156 0.197901
519 1 0.0796364 0.586422 0.214189
520 1 0.0750943 0.646765 0.197916
521 1 0.0892583 0.825241 0.196358
522 1 0.0938822 0.785865 0.20977
523 1 0.0890925 0.586897 0.225466
524 1 0.0843386 0.650065 0.217108
525 1 0.0989127 0.824281 0.210482
526 1 0.103582 0.781797 0.209937
527 1 0.0985434 0.587865 0.226162
528 1 0.0938827 0.649393 0.224735
529 1 0.108414 0.818486 0.197077
530 1 0.112988 0.775427 0.19859
531 1 0.108301 0.587298 0.232784
532 1 0.103472 0.649637 0.221089
533 1 0.117691 0.811591 0.187585
534 1 0.122513 0.772678 0.18638
535 1 0.11738 0.581306 0.226433
536 1 0.112776 0.646334 0.220964
537 1 0.12715 0.816751 0.191047
538 1 0.132009 0.777405 0.199923
539 1 0.126985 0.579807 0.227421
540 1 0.122428 0.63944 0.21265
541 1 0.136661 0.81201 0.191997
542 1 0.141374 0.777717 0.203904
543 1 0.136552 0.581849 0.234225
544 1 0.131647 0.640446 0.222664
545 1 0.146072 0.814158 0.192502
546 1 0.150737 0.772209 0.197528
547 1 0.146033 0.582005 0.226247
548 1 0.141444 0.64619 0.223618
549 1 0.155404 0.813157 0.194944
550 1 0.160035 0.77717 0.195287
551 1 0.155283 0.5763 0.219555
552 1 0.150738 0.6396 0.215248
553 1 0.164699 0.817065 0.190883
554 1 0.169212 0.773533 0.197579
555 1 0.164673 0.57884 0.209586
556 1 0.159838 0.640944 0.203595
557 1 0.174025 0.811456 0.186852
558 1 0.178781 0.772754 0.192897
559 1 0.174019 0.572191 0.212658
560 1 0.169299 0.637623 0.206584
561 1 0.183503 0.807958 0.182521
562 1 0.188234 0.774362 0.189756
563 1 0.183407 0.580486 0.222067
564 1 0.178882 0.640694 0.209697
565 1 0.192855 0.805544 0.176171
566 1 0.197451 0.770121 0.175839
567 1 0.193115 0.576493 0.220768
568 1 0.18841 0.639118 0.213363
569 1 0.202526 0.808697 0.15962
570 1 0.207219 0.766669 0.169592
571 1 0.202616 0.577182 0.226591
572 1 0.197822 0.637403 0.207398
573 1 0.211839 0.806871 0.146434
574 1 0.21689 0.766597 0.160095
575 1 0.211908 0.578759 0.222836
576 1 0.207224 0.640267 0.210865
577 1 0.221599 0.802895 0.148499
578 1 0.226329 0.77178 0.155464
579 1 0.221302 0.578559 0.20529
580 1 0.216639 0.639423 0.197275
581 1 0.230944 0.805984 0.142068
582 1 0.235663 0.76863 0.149436
583 1 0.230798 0.583584 0.210475
584 1 0.226234 0.643358 0.187848
585 1 0.240255 0.813655 0.143888
586 1 0.244947 0.775999 0.158859
587 1 0.240279 0.579938 0.211551
588 1 0.235498 0.641274 0.192763
589 1 0.2498 0.813206 0.145644
590 1 0.254461 0.763554 0.147851
591 1 0.249937 0.57927 0.204008
592 1 0.245028 0.646332 0.197026
593 1 0.259241 0.803171 0.141749
594 1 0.264096 0.763555 0.152091
595 1 0.259151 0.576037 0.201941
596 1 0.254494 0.636918 0.181868
597 1 0.268729 0.804599 0.137663
598 1 0.273445 0.759365 0.135153
599 1 0.268656 0.572909 0.202848
600 1 0.263906 0.635392 0.190279
601 1 0.278155 0.790481 0.13172
602 1 0.282758 0.752983 0.135786
603 1 0.277897 0.566523 0.192048
604 1 0.273251 0.628003 0.174874
605 1 0.287311 0.791062 0.120127
606 1 0.292046 0.754105 0.134924
607 1 0.287495 0.562228 0.188715
608 1 0.282578 0.626561 0.173657
609 1 0.296835 0.786918 0.119241
610 1 0.301466 0.743727 0.135687
611 1 0.296778 0.556788 0.196828
612 1 0.292407 0.62122 0.170225
613 1 0.306044 0.776777 0.108817
614 1 0.310882 0.744877 0.127093
615 1 0.306156 0.558927 0.19337
616 1 0.301452 0.618141 0.177213
617 1 0.315686 0.785458 0.120413
618 1 0.320589 0.755244 0.144056
619 1 0.315555 0.564825 0.206353
620 1 0.310953 0.618814 0.176724
621 1 0.325378 0.786793 0.12679
622 1 0.329992 0.742761 0.132838
623 1 0.325111 0.563487 0.202681
624 1 0.32018 0.62607 0.182997
625 1 0.334664 0.782962 0.124534
626 1 0.339425 0.740525 0.136557
627 1 0.334625 0.557433 0.202037
628 1 0.329796 0.619423 0.180569
629 1 0.344209 0.780225 0.119426
630 1 0.348822 0.740386 0.129498
631 1 0.343957 0.555498 0.194203
632 1 0.339326 0.61508 0.182631
633 1 0.35355 0.774817 0.115157
634 1 0.358147 0.732496 0.122186
635 1 0.35329 0.55178 0.189377
636 1 0.348669 0.610441 0.165502
637 1 0.362951 0.764155 0.110667
638 1 0.367512 0.72579 0.134592
639 1 0.362702 0.551825 0.202552
640 1 0.358052 0.608653 0.173613
641 1 0.372304 0.760862 0.114475
642 1 0.376927 0.717874 0.12584
643 1 0.372191 0.536469 0.201044
644 1 0.367604 0.60393 0.181383
645 1 0.381645 0.749577 0.109703
646 1 0.386486 0.719948 0.135467
647 1 0.381622 0.531451 0.199753
648 1 0.376892 0.59595 0.18484
649 1 0.391109 0.761953 0.122368
650 1 0.395709 0.721406 0.138677
651 1 0.390934 0.529984 0.205196
652 1 0.386247 0.59179 0.182609
653 1 0.400601 0.749296 0.114426
654 1 0.405304 0.710407 0.128988
655 1 0.400546 0.53367 0.203206
656 1 0.395748 0.592235 0.183298
657 1 0.410048 0.738179 0.106194
658 1 0.414941 0.696158 0.126961
659 1 0.409917 0.526479 0.204317
660 1 0.405312 0.589064 0.177235
661 1 0.419895 0.72086 0.102342
662 1 0.424528 0.67772 0.11953
663 1 0.419394 0.513976 0.210489
664 1 0.414758 0.580816 0.187984
665 1 0.429457 0.703772 0.0992362
666 1 0.434021 0.667203 0.122969
667 1 0.428742 0.504158 0.217786
668 1 0.424058 0.559028 0.181776
669 1 0.438891 0.694051 0.101576
670 1 0.443614 0.656243 0.124181
671 1 0.438056 0.499899 0.228971
672 1 0.433565 0.551188 0.189885
673 1 0.448462 0.682436 0.105362
674 1 0.453178 0.644405 0.130357
675 1 0.447682 0.485727 0.228662
676 1 0.443047 0.544718 0.194229
677 1 0.458216 0.668106 0.112476
678 1 0.462794 0.618845 0.138028
679 1 0.4572 0.469406 0.24721
680 1 0.452657 0.533871 0.205636
681 1 0.468129 0.634297 0.130654
682 1 0.47299 0.596037 0.169234
683 1 0.466406 0.447279 0.252359
684 1 0.462157 0.511685 0.21606
685 1 0.478149 0.576716 0.181986
686 1 0.483345 0.504748 0.187197
687 1 0.475889 0.418937 0.290232
688 1 0.471681 0.480134 0.234027
689 1 0.488542 0.457004 0.204355
690 1 0.492632 0.418318 0.276671
691 1 0.484727 0.409388 0.376451
692 1 0.481118 0.439089 0.284098
693 1 0.497716 0.416494 0.320156
694 1 0.500783 0.447918 0.415866
695 1 0.493052 0.420086 0.500529
696 1 0.490184 0.420009 0.390713
697 1 0.50548 0.496211 0.459788
698 1 0.507805 0.55199 0.557138
699 1 0.499928 0.490116 0.63445
700 1 0.498022 0.450842 0.520984
701 1 0.51133 0.637828 0.604222
702 1 0.512413 0.730127 0.683751
703 1 0.505229 0.631028 0.760239
704 1 0.504398 0.556703 0.652621
705 1 0.514077 0.848131 0.68303
706 1 0.512499 0.961883 0.647824
707 1 0.506166 0.860916 0.781663
708 1 0.508265 0.73763 0.756033
709 1 0.512109 0.99976 0.532101
710 1 0.509193 0.9752 0.438768
711 1 0.503224 0.973131 0.604658
712 1 0.507387 0.955154 0.695011
713 1 0.509603 0.911762 0.328055
714 1 0.506991 0.835975 0.248578
715 1 0.500702 0.909513 0.389729
716 1 0.504133 0.964201 0.475299
717 1 0.507358 0.756421 0.155986
718 1 0.504355 0.686936 0.0774905
719 1 0.498261 0.788438 0.211006
720 1 0.501896 0.848766 0.28243
721 1 0.504627 0.577437 0.02028
722 1 0.501845 0.467727 0.00756625
723 1 0.495876 0.637434 0.0472824
724 1 0.499393 0.716003 0.100648
725 1 0.501953 0.353784 0.0616978
726 1 0.499061 0.290785 0.142787
727 1 0.492707 0.416517 0.0379672
728 1 0.496602 0.504223 0.0200611
729 1 0.499119 0.228887 0.250788
730 1 0.496305 0.174186 0.33878
731 1 0.490343 0.246465 0.184058
732 1 0.493904 0.313598 0.112125
733 1 0.496231 0.151618 0.457035
734 1 0.493149 0.120417 0.548881
735 1 0.487704 0.129789 0.374549
736 1 0.4914 0.181088 0.29586
737 1 0.492818 0.111009 0.669859
738 1 0.48994 0.0926743 0.76602
739 1 0.484673 0.0644803 0.578413
740 1 0.488401 0.103717 0.496765
741 1 0.489267 0.138137 0.87736
742 1 0.486049 0.212678 0.941426
743 1 0.480823 0.102267 0.783314
744 1 0.485199 0.0768968 0.708553
745 1 0.486643 0.324274 0.985797
746 1 0.48583 0.443718 0.955899
747 1 0.479747 0.323672 0.827928
748 1 0.481698 0.204178 0.866493
749 1 0.488506 0.546625 0.932021
750 1 0.490331 0.612262 0.842685
751 1 0.484032 0.501196 0.741369
752 1 0.482824 0.43041 0.846213
753 1 0.494213 0.679501 0.808765
754 1 0.49717 0.709176 0.720982
755 1 0.490915 0.597828 0.624091
756 1 0.488289 0.571742 0.732198
757 1 0.501127 0.770531 0.68027
758 1 0.504264 0.784165 0.596653
759 1 0.498713 0.647855 0.514503
760 1 0.495792 0.648813 0.614939
761 1 0.508521 0.829962 0.56072
762 1 0.512648 0.814089 0.504883
763 1 0.507149 0.678766 0.416824
764 1 0.503437 0.695914 0.507278
765 1 0.517298 0.849952 0.506448
766 1 0.521539 0.83351 0.453477
767 1 0.516013 0.682109 0.359118
768 1 0.511923 0.723065 0.424257
769 1 0.526288 0.86972 0.453281
770 1 0.530532 0.838599 0.406839
771 1 0.52496 0.677942 0.313658
772 1 0.520775 0.731196 0.373087
773 1 0.535237 0.863187 0.417143
774 1 0.539911 0.819998 0.397859
775 1 0.53417 0.667615 0.288515
776 1 0.529806 0.728103 0.331459
777 1 0.544507 0.843044 0.429333
778 1 0.548954 0.788892 0.409872
779 1 0.543681 0.643128 0.296238
780 1 0.539108 0.712588 0.323321
781 1 0.553714 0.815315 0.425049
782 1 0.558339 0.776069 0.399779
783 1 0.55305 0.619705 0.304252
784 1 0.548595 0.680546 0.331115
785 1 0.562958 0.806546 0.41515
786 1 0.56756 0.770278 0.392832
787 1 0.562525 0.601063 0.30132
788 1 0.558019 0.661842 0.33064
789 1 0.572148 0.798281 0.406122
790 1 0.576713 0.756286 0.381264
791 1 0.571872 0.591961 0.294809
792 1 0.567426 0.651721 0.330136
793 1 0.581451 0.793386 0.393683
794 1 0.586008 0.756041 0.371351
795 1 0.58098 0.584144 0.283708
796 1 0.576483 0.642152 0.320602
797 1 0.590677 0.780099 0.400417
798 1 0.595304 0.744071 0.389152
799 1 0.590481 0.584972 0.276468
800 1 0.585757 0.639044 0.305739
801 1 0.600087 0.775967 0.412735
802 1 0.604654 0.741194 0.388727
803 1 0.599929 0.579776 0.282676
804 1 0.595095 0.638701 0.308202
805 1 0.609308 0.780691 0.396214
806 1 0.613907 0.751536 0.368057
807 1 0.609436 0.574589 0.28319
808 1 0.604662 0.627489 0.322243
809 1 0.618541 0.784991 0.382517
810 1 0.623208 0.750114 0.367431
811 1 0.618624 0.576431 0.281698
812 1 0.61399 0.633154 0.30912
813 1 0.628022 0.788641 0.377814
814 1 0.63273 0.761494 0.354953
815 1 0.628052 0.581299 0.269209
816 1 0.623436 0.631387 0.308088
817 1 0.6376 0.79078 0.366247
818 1 0.642185 0.758589 0.342482
819 1 0.637512 0.584192 0.255959
820 1 0.632776 0.637398 0.293019
821 1 0.646967 0.791279 0.360061
822 1 0.651545 0.757249 0.34587
823 1 0.646782 0.587155 0.249507
824 1 0.642347 0.643715 0.277547
825 1 0.656341 0.783862 0.369169
826 1 0.661094 0.750302 0.347931
827 1 0.656458 0.584505 0.252363
828 1 0.651605 0.640186 0.279366
829 1 0.665818 0.789054 0.365677
830 1 0.670473 0.758156 0.343815
831 1 0.665962 0.577517 0.255492
832 1 0.661185 0.632459 0.283738
833 1 0.675116 0.800606 0.356756
834 1 0.679827 0.765257 0.339627
835 1 0.675317 0.585934 0.258009
836 1 0.670663 0.635403 0.285823
837 1 0.684569 0.80429 0.350731
838 1 0.689349 0.763952 0.339072
839 1 0.684713 0.578674 0.262149
840 1 0.67986 0.64294 0.283995
841 1 0.69406 0.798597 0.345763
842 1 0.6987 0.760277 0.33017
843 1 0.694105 0.575327 0.261714
844 1 0.689319 0.634161 0.288755
845 1 0.703504 0.799508 0.345626
846 1 0.708269 0.768505 0.324621
847 1 0.70371 0.580997 0.260176
848 1 0.698573 0.63588 0.281427
849 1 0.712959 0.805887 0.345156
850 1 0.717655 0.771154 0.329863
851 1 0.713079 0.58464 0.264295
852 1 0.708412 0.642668 0.27585
853 1 0.722322 0.814521 0.338022
854 1 0.727085 0.783668 0.316055
855 1 0.722502 0.587878 0.267449
856 1 0.717699 0.646862 0.286426
857 1 0.731679 0.826378 0.317349
858 1 0.736523 0.787234 0.30619
859 1 0.731852 0.58881 0.263387
860 1 0.727174 0.64902 0.283508
861 1 0.741266 0.827013 0.314665
862 1 0.745914 0.790667 0.309198
863 1 0.741208 0.592529 0.265204
864 1 0.736603 0.654195 0.280139
865 1 0.750693 0.829228 0.30971
866 1 0.755393 0.786696 0.300384
867 1 0.75085 0.596535 0.257671
868 1 0.745934 0.654987 0.278417
869 1 0.760041 0.826264 0.317651
870 1 0.764712 0.779279 0.307002
871 1 0.760057 0.598318 0.252662
872 1 0.755444 0.65802 0.268707
873 1 0.769325 0.825651 0.320073
874 1 0.773983 0.786589 0.305797
875 1 0.769398 0.595891 0.247725
876 1 0.764708 0.657111 0.263755
877 1 0.778655 0.8208 0.3204
878 1 0.783356 0.788761 0.312008
879 1 0.778874 0.59572 0.249009
880 1 0.774153 0.65546 0.267405
881 1 0.788088 0.825903 0.316886
882 1 0.792722 0.789318 0.295418
883 1 0.788143 0.599948 0.241754
884 1 0.783558 0.663059 0.265228
885 1 0.797502 0.830401 0.301953
886 1 0.802228 0.786145 0.298042
887 1 0.797626 0.597878 0.239449
888 1 0.792863 0.661067 0.246292
889 1 0.807152 0.823405 0.289588
890 1 0.811826 0.783613 0.281017
891 1 0.807052 0.594219 0.253068
892 1 0.80244 0.656671 0.256909
893 1 0.816446 0.825025 0.288361
894 1 0.821251 0.790001 0.279381
895 1 0.816279 0.597894 0.248795
896 1 0.811738 0.654703 0.267232
897 1 0.825945 0.826251 0.278932
898 1 0.830521 0.782486 0.276411
899 1 0.825851 0.590769 0.247771
900 1 0.821091 0.656458 0.254891
901 1 0.835442 0.821749 0.283507
902 1 0.839965 0.778151 0.285387
903 1 0.835558 0.590606 0.241704
904 1 0.83071 0.649071 0.254288
905 1 0.844612 0.81546 0.294281
906 1 0.84944 0.778972 0.285025
907 1 0.844844 0.58684 0.242702
908 1 0.84015 0.649727 0.255956
909 1 0.854281 0.819099 0.284615
910 1 0.858893 0.782575 0.267446
911 1 0.854119 0.591497 0.22695