ITEM: TIMESTEP
248000
ITEM: NUMBER OF ATOMS
976
ITEM: BOX BOUNDS ss ss ss
-0.0238218 287.911
-1.45489 8.89796
-2.33281 8.88165
ITEM: ATOMS id type xs ys zs
1 1 0.00439744 0.415341 0.208127
2 1 0.00863049 0.345402 0.208197
3 1 0.00435053 0.141819 0.208172
4 1 9.76018e-05 0.208077 0.208136
5 1 0.00437624 0.82609 0.208141
6 1 0.00861752 0.758123 0.208153
7 1 0.00431998 0.551971 0.208154
8 1 9.83345e-05 0.620316 0.208142
9 1 0.0134842 0.411556 0.211649
10 1 0.0182268 0.348525 0.21719
11 1 0.0137792 0.159236 0.215794
12 1 0.00904259 0.194833 0.210032
13 1 0.0229159 0.414753 0.207743
14 1 0.0277952 0.347225 0.224193
15 1 0.0232276 0.158403 0.218675
16 1 0.0184155 0.204869 0.220512
17 1 0.0324477 0.417445 0.230392
18 1 0.0371769 0.359918 0.223279
19 1 0.0325549 0.167912 0.210645
20 1 0.0278754 0.201528 0.215732
21 1 0.0416791 0.42944 0.221914
22 1 0.0464654 0.363821 0.212861
23 1 0.0419212 0.175217 0.205873
24 1 0.0372271 0.217844 0.211694
25 1 0.0511777 0.432015 0.219182
26 1 0.0557176 0.359027 0.228995
27 1 0.0509606 0.172143 0.212313
28 1 0.0464631 0.218801 0.204021
29 1 0.06043 0.42546 0.228968
30 1 0.065224 0.35586 0.224227
31 1 0.0603174 0.167404 0.21163
32 1 0.0557106 0.211763 0.217673
33 1 0.069935 0.423191 0.216114
34 1 0.0745684 0.359063 0.212129
35 1 0.0697569 0.164217 0.209933
36 1 0.0649423 0.21243 0.214424
37 1 0.0790694 0.428455 0.204789
38 1 0.0838379 0.361986 0.202318
39 1 0.0792072 0.174133 0.219501
40 1 0.0743739 0.21417 0.219469
41 1 0.0887176 0.425396 0.199556
42 1 0.0935906 0.365452 0.205985
43 1 0.0886207 0.177895 0.217284
44 1 0.0838809 0.21903 0.216193
45 1 0.0980886 0.433908 0.203011
46 1 0.102759 0.3625 0.204678
47 1 0.0978413 0.182018 0.211245
48 1 0.0932253 0.218164 0.211311
49 1 0.107539 0.422716 0.211929
50 1 0.112282 0.354412 0.215008
51 1 0.107471 0.172155 0.200681
52 1 0.102633 0.214099 0.201174
53 1 0.116921 0.419669 0.217376
54 1 0.121624 0.351563 0.218607
55 1 0.117078 0.164833 0.227692
56 1 0.112204 0.207746 0.218527
57 1 0.126209 0.420227 0.211949
58 1 0.131058 0.352422 0.215875
59 1 0.126504 0.166595 0.235657
60 1 0.121829 0.208916 0.229462
61 1 0.135843 0.42484 0.218859
62 1 0.140689 0.357674 0.233245
63 1 0.136007 0.169952 0.24751
64 1 0.131184 0.210952 0.235417
65 1 0.145252 0.42207 0.223458
66 1 0.149942 0.356674 0.240604
67 1 0.145429 0.176892 0.265299
68 1 0.140583 0.21984 0.253359
69 1 0.154675 0.426756 0.224177
70 1 0.159272 0.359443 0.229028
71 1 0.154668 0.175089 0.261908
72 1 0.1501 0.218936 0.257408
73 1 0.164029 0.427015 0.228407
74 1 0.168698 0.360611 0.23935
75 1 0.163874 0.177556 0.258888
76 1 0.159278 0.219589 0.25331
77 1 0.173581 0.425491 0.229701
78 1 0.178303 0.358428 0.23742
79 1 0.173486 0.175253 0.276822
80 1 0.168734 0.215956 0.264035
81 1 0.182955 0.4234 0.231666
82 1 0.187564 0.355988 0.251504
83 1 0.182738 0.178368 0.282659
84 1 0.17802 0.218112 0.270583
85 1 0.192147 0.420621 0.2419
86 1 0.196751 0.3481 0.244539
87 1 0.192038 0.169672 0.279838
88 1 0.187352 0.211659 0.279132
89 1 0.201555 0.410247 0.230415
90 1 0.206126 0.341028 0.243341
91 1 0.201484 0.159342 0.287085
92 1 0.196928 0.205343 0.277192
93 1 0.210958 0.403881 0.231248
94 1 0.215681 0.338903 0.244171
95 1 0.210829 0.158487 0.292029
96 1 0.206123 0.201179 0.273228
97 1 0.22046 0.409657 0.232932
98 1 0.225 0.339746 0.253267
99 1 0.220277 0.157774 0.299282
100 1 0.215642 0.199608 0.283975
101 1 0.229846 0.40776 0.229863
102 1 0.234908 0.343646 0.242255
103 1 0.230026 0.16244 0.291278
104 1 0.225191 0.200697 0.291275
105 1 0.239481 0.409157 0.223769
106 1 0.244167 0.346846 0.247777
107 1 0.239549 0.166635 0.289781
108 1 0.234778 0.202857 0.275593
109 1 0.248859 0.414623 0.235701
110 1 0.253598 0.349149 0.243701
111 1 0.248732 0.167942 0.295257
112 1 0.244086 0.209066 0.28003
113 1 0.258085 0.414047 0.226891
114 1 0.262719 0.351268 0.245947
115 1 0.258242 0.17059 0.293549
116 1 0.253414 0.207682 0.285511
117 1 0.267437 0.421988 0.234647
118 1 0.271859 0.360637 0.251095
119 1 0.267372 0.177409 0.287077
120 1 0.262778 0.214585 0.276222
121 1 0.2768 0.426481 0.241039
122 1 0.281431 0.358238 0.253919
123 1 0.276816 0.179311 0.296846
124 1 0.272127 0.221584 0.286041
125 1 0.286177 0.41938 0.242248
126 1 0.290891 0.350596 0.263994
127 1 0.286098 0.172817 0.299165
128 1 0.281512 0.217345 0.290009
129 1 0.295476 0.41789 0.249567
130 1 0.300086 0.351478 0.270701
131 1 0.295606 0.165574 0.300346
132 1 0.290852 0.207832 0.289814
133 1 0.305077 0.425052 0.271413
134 1 0.309747 0.363087 0.286693
135 1 0.305069 0.178202 0.310636
136 1 0.300163 0.21119 0.298672
137 1 0.314425 0.427335 0.261669
138 1 0.318998 0.358687 0.277738
139 1 0.314324 0.186651 0.33274
140 1 0.309636 0.224852 0.31756
141 1 0.323739 0.421442 0.254306
142 1 0.328464 0.364065 0.280508
143 1 0.323638 0.194356 0.351898
144 1 0.318931 0.226048 0.327934
145 1 0.333311 0.419737 0.260187
146 1 0.337659 0.361576 0.286474
147 1 0.332973 0.191538 0.358461
148 1 0.328346 0.231427 0.338187
149 1 0.342519 0.416064 0.265794
150 1 0.34738 0.354943 0.292876
151 1 0.342515 0.190997 0.356164
152 1 0.337691 0.232362 0.345996
153 1 0.352316 0.414792 0.265213
154 1 0.356789 0.345046 0.284493
155 1 0.351807 0.174198 0.348564
156 1 0.347321 0.220888 0.339544
157 1 0.361358 0.414847 0.267062
158 1 0.365851 0.368325 0.302423
159 1 0.361243 0.182932 0.359131
160 1 0.356492 0.211184 0.334575
161 1 0.370649 0.426145 0.276774
162 1 0.375381 0.36221 0.309775
163 1 0.370662 0.199416 0.389094
164 1 0.366048 0.232259 0.358791
165 1 0.380121 0.421531 0.273546
166 1 0.385076 0.367421 0.304874
167 1 0.380086 0.210307 0.400703
168 1 0.375406 0.237614 0.376465
169 1 0.389713 0.42552 0.273478
170 1 0.394469 0.377833 0.312669
171 1 0.389777 0.219025 0.405595
172 1 0.384875 0.250361 0.381329
173 1 0.399129 0.427017 0.274981
174 1 0.403926 0.37695 0.307174
175 1 0.399083 0.228516 0.404483
176 1 0.394404 0.261037 0.385388
177 1 0.408645 0.430148 0.279189
178 1 0.413308 0.367387 0.316738
179 1 0.408296 0.220889 0.4134
180 1 0.403724 0.260713 0.382083
181 1 0.417862 0.423312 0.288118
182 1 0.422676 0.374137 0.331614
183 1 0.417583 0.220262 0.425524
184 1 0.413003 0.254126 0.393678
185 1 0.427216 0.432471 0.307136
186 1 0.431829 0.374335 0.341532
187 1 0.42708 0.223319 0.435173
188 1 0.42231 0.254978 0.408338
189 1 0.436656 0.425764 0.311459
190 1 0.44124 0.357405 0.352226
191 1 0.436085 0.206552 0.448959
192 1 0.43165 0.254657 0.414622
193 1 0.446103 0.418269 0.322744
194 1 0.4505 0.358291 0.363495
195 1 0.445483 0.203862 0.45064
196 1 0.440757 0.236938 0.42708
197 1 0.455171 0.406807 0.332357
198 1 0.459746 0.342564 0.36273
199 1 0.454754 0.183242 0.446015
200 1 0.45026 0.238055 0.433559
201 1 0.464512 0.382439 0.329435
202 1 0.468968 0.324645 0.367321
203 1 0.463819 0.173959 0.438916
204 1 0.459313 0.215361 0.423339
205 1 0.473819 0.361938 0.372197
206 1 0.47746 0.334581 0.459422
207 1 0.472535 0.187784 0.485264
208 1 0.468311 0.207058 0.422722
209 1 0.482113 0.373019 0.468879
210 1 0.485197 0.360549 0.571765
211 1 0.479768 0.225861 0.621308
212 1 0.476502 0.23361 0.537028
213 1 0.490236 0.398355 0.585344
214 1 0.492672 0.40596 0.696441
215 1 0.486673 0.294044 0.762911
216 1 0.483569 0.284672 0.67056
217 1 0.497241 0.456817 0.703605
218 1 0.498805 0.522312 0.813107
219 1 0.492959 0.405713 0.895718
220 1 0.490554 0.356258 0.804573
221 1 0.50248 0.624633 0.809819
222 1 0.501959 0.749344 0.877099
223 1 0.496205 0.626153 0.976921
224 1 0.496109 0.501002 0.92697
225 1 0.503231 0.863066 0.804633
226 1 0.499474 0.942482 0.741777
227 1 0.494933 0.864597 0.899166
228 1 0.497544 0.752287 0.954513
229 1 0.500072 0.981161 0.611327
230 1 0.495935 0.9559 0.527526
231 1 0.491515 0.943817 0.70306
232 1 0.4947 0.932407 0.792814
233 1 0.496429 0.920244 0.404736
234 1 0.492418 0.87539 0.325089
235 1 0.488113 0.912321 0.487618
236 1 0.491256 0.942233 0.577753
237 1 0.493069 0.813062 0.208622
238 1 0.489095 0.764554 0.132369
239 1 0.484617 0.849594 0.277153
240 1 0.48748 0.890759 0.365617
241 1 0.489596 0.659148 0.0402678
242 1 0.48572 0.571898 0.00649039
243 1 0.481472 0.733173 0.0859113
244 1 0.48431 0.79714 0.162973
245 1 0.486459 0.428154 0.00937829
246 1 0.482841 0.336095 0.0574016
247 1 0.478209 0.508351 0.00220016
248 1 0.481029 0.622746 0.00834434
249 1 0.483674 0.235095 0.149492
250 1 0.479988 0.173038 0.217447
251 1 0.474711 0.288698 0.101105
252 1 0.477818 0.38083 0.0434817
253 1 0.48041 0.0984215 0.330627
254 1 0.476923 0.0351661 0.409679
255 1 0.472164 0.109877 0.255482
256 1 0.47494 0.187376 0.187965
257 1 0.477168 0.0294424 0.543965
258 1 0.473045 0.0613473 0.63131
259 1 0.469141 0.00928528 0.46318
260 1 0.471987 0.0261439 0.36249
261 1 0.47442 0.156367 0.730855
262 1 0.472949 0.295982 0.701331
263 1 0.466994 0.191848 0.608064
264 1 0.4682 0.0614206 0.581829
265 1 0.476664 0.396968 0.70665
266 1 0.47773 0.499075 0.611521
267 1 0.471192 0.42564 0.540894
268 1 0.46925 0.315735 0.616244
269 1 0.482531 0.548222 0.594202
270 1 0.485086 0.591846 0.484555
271 1 0.477835 0.576345 0.415146
272 1 0.474733 0.516139 0.508064
273 1 0.490423 0.611715 0.477718
274 1 0.493636 0.608899 0.376808
275 1 0.486428 0.640004 0.295133
276 1 0.482438 0.616465 0.374873
277 1 0.498737 0.597534 0.377063
278 1 0.502482 0.564907 0.285832
279 1 0.495969 0.56937 0.187007
280 1 0.491576 0.621636 0.258213
281 1 0.507665 0.563598 0.295015
282 1 0.511942 0.50482 0.228213
283 1 0.505668 0.442489 0.126185
284 1 0.501095 0.514619 0.167135
285 1 0.517092 0.529718 0.261767
286 1 0.521471 0.474788 0.208874
287 1 0.515459 0.367018 0.0937924
288 1 0.510702 0.417428 0.13032
289 1 0.526609 0.517147 0.238985
290 1 0.530972 0.45462 0.190781
291 1 0.525408 0.322892 0.0915145
292 1 0.520882 0.375027 0.112198
293 1 0.535862 0.504256 0.219403
294 1 0.540479 0.448739 0.180756
295 1 0.535138 0.299228 0.101799
296 1 0.53038 0.332465 0.121504
297 1 0.545487 0.492013 0.21069
298 1 0.549939 0.427719 0.174644
299 1 0.544858 0.292503 0.0785145
300 1 0.539957 0.329877 0.111371
301 1 0.554672 0.477456 0.214881
302 1 0.559277 0.4153 0.185636
303 1 0.554527 0.278441 0.0745515
304 1 0.549776 0.312592 0.0939346
305 1 0.563978 0.466782 0.21798
306 1 0.568621 0.41355 0.182726
307 1 0.563729 0.273227 0.0807042
308 1 0.558952 0.302975 0.106138
309 1 0.573395 0.46494 0.217583
310 1 0.578083 0.401226 0.186412
311 1 0.572914 0.25533 0.0885699
312 1 0.568314 0.301903 0.105559
313 1 0.582748 0.45327 0.21414
314 1 0.58744 0.401609 0.174909
315 1 0.582311 0.245633 0.0911394
316 1 0.577685 0.279449 0.114266
317 1 0.592254 0.454778 0.20468
318 1 0.596853 0.38718 0.172252
319 1 0.591593 0.239703 0.0866583
320 1 0.587002 0.277602 0.103964
321 1 0.601545 0.443556 0.208813
322 1 0.606079 0.384919 0.174076
323 1 0.601109 0.226602 0.0839563
324 1 0.596399 0.265037 0.107693
325 1 0.610958 0.435 0.198668
326 1 0.615706 0.373323 0.181869
327 1 0.610774 0.216438 0.0847826
328 1 0.605993 0.263684 0.100075
329 1 0.620498 0.433407 0.205467
330 1 0.625279 0.371493 0.178547
331 1 0.620552 0.209332 0.102279
332 1 0.615661 0.250787 0.113337
333 1 0.62994 0.426481 0.206398
334 1 0.634883 0.360185 0.179544
335 1 0.630112 0.199754 0.108367
336 1 0.625237 0.240568 0.121106
337 1 0.63937 0.421262 0.212932
338 1 0.644484 0.363345 0.185779
339 1 0.63983 0.195157 0.110061
340 1 0.63481 0.228941 0.127015
341 1 0.649078 0.424437 0.211023
342 1 0.653486 0.367725 0.172505
343 1 0.649167 0.194381 0.110258
344 1 0.644558 0.233623 0.126527
345 1 0.65815 0.427264 0.203204
346 1 0.662945 0.36576 0.185939
347 1 0.658514 0.193207 0.110938
348 1 0.653766 0.23237 0.123414
349 1 0.667767 0.427396 0.206673
350 1 0.672358 0.366883 0.180835
351 1 0.667735 0.19929 0.116397
352 1 0.66311 0.236815 0.138119
353 1 0.677004 0.426578 0.201406
354 1 0.681637 0.366072 0.172714
355 1 0.677073 0.194892 0.109218
356 1 0.672427 0.237615 0.126185
357 1 0.686443 0.431268 0.196261
358 1 0.691103 0.36325 0.175466
359 1 0.686459 0.192293 0.106257
360 1 0.681871 0.229464 0.125754
361 1 0.695739 0.426089 0.197918
362 1 0.700491 0.365425 0.173224
363 1 0.695863 0.197202 0.095713
364 1 0.691198 0.232881 0.116955
365 1 0.70511 0.425598 0.211066
366 1 0.709942 0.35991 0.184819
367 1 0.705224 0.196318 0.113192
368 1 0.700558 0.234907 0.116795
369 1 0.714624 0.418542 0.204477
370 1 0.719256 0.359055 0.177361
371 1 0.714485 0.186685 0.124497
372 1 0.70988 0.229452 0.133096
373 1 0.723795 0.422377 0.198261
374 1 0.728731 0.365005 0.173936
375 1 0.724072 0.191223 0.111166
376 1 0.719377 0.223631 0.134978
377 1 0.733385 0.423918 0.197915
378 1 0.738196 0.368264 0.171984
379 1 0.733383 0.196303 0.113431
380 1 0.728686 0.229996 0.121171
381 1 0.74273 0.428605 0.196861
382 1 0.747293 0.364958 0.168519
383 1 0.742824 0.192077 0.118681
384 1 0.738126 0.237852 0.130043
385 1 0.751977 0.423303 0.192757
386 1 0.756631 0.358143 0.168447
387 1 0.752013 0.180278 0.119215
388 1 0.747424 0.226321 0.129287
389 1 0.761264 0.418503 0.191765
390 1 0.765981 0.359591 0.169897
391 1 0.761347 0.180779 0.119294
392 1 0.756737 0.221976 0.128638
393 1 0.770687 0.427687 0.195863
394 1 0.775172 0.366409 0.170991
395 1 0.770495 0.190201 0.11957
396 1 0.765821 0.225345 0.127469
397 1 0.779887 0.43344 0.18342
398 1 0.784643 0.365728 0.168211
399 1 0.779757 0.188553 0.119867
400 1 0.775121 0.22727 0.134787
401 1 0.789503 0.428558 0.185782
402 1 0.794182 0.367795 0.171827
403 1 0.789393 0.187413 0.127061
404 1 0.784616 0.225353 0.134671
405 1 0.798895 0.431248 0.200996
406 1 0.803576 0.366395 0.190953
407 1 0.798875 0.18684 0.133906
408 1 0.794117 0.227528 0.141423
409 1 0.808189 0.421738 0.215432
410 1 0.812897 0.350784 0.199804
411 1 0.808002 0.186825 0.138789
412 1 0.803427 0.23215 0.145281
413 1 0.818033 0.416117 0.219181
414 1 0.822518 0.346725 0.206392
415 1 0.817693 0.173391 0.152801
416 1 0.812763 0.216103 0.157937
417 1 0.827183 0.410251 0.220698
418 1 0.831899 0.349944 0.203214
419 1 0.827098 0.17269 0.163721
420 1 0.822322 0.210684 0.166742
421 1 0.83643 0.415588 0.216707
422 1 0.841308 0.352265 0.203543
423 1 0.836486 0.168059 0.166371
424 1 0.831774 0.209268 0.177933
425 1 0.846119 0.411178 0.230664
426 1 0.850737 0.351977 0.216086
427 1 0.845955 0.170502 0.170517
428 1 0.84122 0.210112 0.176054
429 1 0.855409 0.420255 0.228536
430 1 0.859935 0.355479 0.206264
431 1 0.855294 0.179777 0.162621
432 1 0.850603 0.211978 0.177559
433 1 0.864575 0.421094 0.225174
434 1 0.869203 0.351663 0.212857
435 1 0.864667 0.175958 0.160688
436 1 0.859759 0.219198 0.167125
437 1 0.874006 0.413136 0.230822
438 1 0.878655 0.348122 0.22361
439 1 0.8739 0.17458 0.174501
440 1 0.869201 0.214824 0.177579
441 1 0.883503 0.408626 0.224288
442 1 0.888074 0.342498 0.203451
443 1 0.883202 0.169048 0.172025
444 1 0.878463 0.212418 0.190708
445 1 0.892801 0.415642 0.211989
446 1 0.897516 0.354924 0.200186
447 1 0.892808 0.169169 0.158882
448 1 0.887958 0.203179 0.171261
449 1 0.902241 0.421988 0.209013
450 1 0.906918 0.356947 0.202192
451 1 0.902342 0.174065 0.163348
452 1 0.897514 0.215316 0.170401
453 1 0.911476 0.426633 0.208648
454 1 0.916106 0.357287 0.203337
455 1 0.911729 0.174206 0.176568
456 1 0.906967 0.217226 0.176943
457 1 0.920898 0.425653 0.211608
458 1 0.925722 0.35724 0.205267
459 1 0.920957 0.170947 0.183447
460 1 0.916323 0.212584 0.185228
461 1 0.930428 0.418715 0.222695
462 1 0.935009 0.353983 0.206018
463 1 0.930329 0.173445 0.182931
464 1 0.925627 0.214057 0.187751
465 1 0.93995 0.421231 0.204056
466 1 0.944462 0.353622 0.197807
467 1 0.939888 0.171493 0.184303
468 1 0.935154 0.211603 0.186206
469 1 0.94933 0.423833 0.201579
470 1 0.953975 0.35573 0.202831
471 1 0.949151 0.174307 0.208175
472 1 0.944474 0.21468 0.197606
473 1 0.958696 0.415111 0.201198
474 1 0.963274 0.339558 0.209573
475 1 0.958471 0.164721 0.218609
476 1 0.953787 0.2125 0.211064
477 1 0.968216 0.415207 0.223838
478 1 0.972797 0.352097 0.230639
479 1 0.968109 0.162824 0.230884
480 1 0.963313 0.196723 0.220822
481 1 0.977566 0.424558 0.221236
482 1 0.981981 0.358341 0.217188
483 1 0.977462 0.16806 0.22132
484 1 0.972746 0.208958 0.226999
485 1 0.986703 0.420214 0.213093
486 1 0.991314 0.350948 0.209472
487 1 0.986696 0.172735 0.210926
488 1 0.981979 0.214855 0.215107
489 1 0.0132389 0.801596 0.208645
490 1 0.0178793 0.764808 0.210422
491 1 0.0134372 0.552683 0.210958
492 1 0.00880797 0.617833 0.208939
493 1 0.0225285 0.809982 0.204101
494 1 0.0271603 0.771474 0.209955
495 1 0.0227936 0.558089 0.202225
496 1 0.0180097 0.621992 0.212778
497 1 0.0321321 0.820033 0.21504
498 1 0.0369142 0.780412 0.220239
499 1 0.032366 0.565995 0.224882
500 1 0.0273731 0.627497 0.206887
501 1 0.041711 0.825099 0.218032
502 1 0.0465851 0.786809 0.222243
503 1 0.041678 0.572785 0.228625
504 1 0.0369754 0.63639 0.223223
505 1 0.0513384 0.823583 0.220438
506 1 0.0559814 0.779216 0.221888
507 1 0.0510856 0.575003 0.225561
508 1 0.0463605 0.640956 0.226358
509 1 0.0606095 0.818826 0.2224
510 1 0.0650829 0.776656 0.22131
511 1 0.060703 0.562132 0.226376
512 1 0.0559284 0.637785 0.222803
513 1 0.0698835 0.81578 0.223401
514 1 0.0745941 0.776424 0.224016
515 1 0.0701192 0.56552 0.220139
516 1 0.0656341 0.628696 0.221574
517 1 0.0793008 0.820441 0.223083
518 1 0.0841048 0.78299 0.215682
519 1 0.0791496 0.569381 0.210563
520 1 0.0747413 0.635652 0.21821
521 1 0.0887296 0.821941 0.213468
522 1 0.0935367 0.782377 0.215535
523 1 0.088514 0.569386 0.202554
524 1 0.0838173 0.637733 0.204331
525 1 0.0983432 0.822559 0.208928
526 1 0.103148 0.779711 0.211694
527 1 0.0982248 0.573464 0.207156
528 1 0.0932079 0.636924 0.205261
529 1 0.107767 0.819589 0.207056
530 1 0.112476 0.777065 0.200667
531 1 0.107697 0.565808 0.210312
532 1 0.102893 0.635574 0.210908
533 1 0.117052 0.814263 0.186863
534 1 0.121593 0.769314 0.184088
535 1 0.117025 0.563831 0.208286
536 1 0.112234 0.635993 0.204386
537 1 0.126426 0.810664 0.180385
538 1 0.131226 0.776874 0.186884
539 1 0.126245 0.561877 0.212209
540 1 0.121674 0.629015 0.205301
541 1 0.13597 0.811726 0.172917
542 1 0.140649 0.767951 0.164396
543 1 0.135954 0.560134 0.202849
544 1 0.131238 0.627709 0.205955
545 1 0.145214 0.812091 0.155021
546 1 0.149896 0.768036 0.164817
547 1 0.14532 0.55948 0.197279
548 1 0.140583 0.624947 0.184987
549 1 0.154609 0.808913 0.160529
550 1 0.159368 0.769957 0.176987
551 1 0.154638 0.561461 0.194159
552 1 0.149862 0.628579 0.190073
553 1 0.164059 0.812063 0.167841
554 1 0.168847 0.776236 0.179926
555 1 0.164094 0.567503 0.207594
556 1 0.159221 0.631287 0.194615
557 1 0.173517 0.818744 0.178659
558 1 0.178134 0.772252 0.179392
559 1 0.173637 0.563984 0.207069
560 1 0.168839 0.633144 0.196304
561 1 0.182932 0.813557 0.163367
562 1 0.187604 0.768437 0.162023
563 1 0.182777 0.564817 0.213093
564 1 0.178149 0.631083 0.195697
565 1 0.192171 0.804319 0.153139
566 1 0.196885 0.7603 0.160493
567 1 0.192331 0.558959 0.21199
568 1 0.187569 0.626959 0.196241
569 1 0.201697 0.794443 0.144652
570 1 0.206391 0.750124 0.157615
571 1 0.201801 0.551198 0.20981
572 1 0.197105 0.624106 0.200436
573 1 0.21107 0.792598 0.142875
574 1 0.215725 0.749809 0.151521
575 1 0.211102 0.54342 0.20342
576 1 0.206434 0.612855 0.193182
577 1 0.220296 0.789419 0.14772
578 1 0.225131 0.755679 0.161389
579 1 0.220587 0.548715 0.204099
580 1 0.215843 0.607654 0.181576
581 1 0.229826 0.796185 0.147093
582 1 0.234616 0.753201 0.154366
583 1 0.229871 0.544485 0.199797
584 1 0.225122 0.613649 0.185429
585 1 0.239371 0.79239 0.148056
586 1 0.244003 0.753514 0.161267
587 1 0.239372 0.546794 0.186895
588 1 0.234531 0.608654 0.171065
589 1 0.248577 0.800995 0.155927
590 1 0.25313 0.759291 0.15602
591 1 0.248897 0.549379 0.197937
592 1 0.244203 0.609706 0.181463
593 1 0.257922 0.802267 0.152534
594 1 0.262689 0.761386 0.161303
595 1 0.258122 0.549581 0.196526
596 1 0.253514 0.611205 0.18599
597 1 0.267408 0.80069 0.148606
598 1 0.272126 0.7693 0.160103
599 1 0.267453 0.55698 0.198311
600 1 0.262653 0.617863 0.18711
601 1 0.276829 0.805075 0.154534
602 1 0.281568 0.764419 0.170221
603 1 0.276776 0.562958 0.205129
604 1 0.272122 0.624802 0.192162
605 1 0.286225 0.802286 0.15997
606 1 0.290882 0.758333 0.16807
607 1 0.286169 0.556694 0.208716
608 1 0.281367 0.622576 0.189436
609 1 0.295539 0.790596 0.145137
610 1 0.300136 0.753995 0.156701
611 1 0.295446 0.553595 0.2214
612 1 0.290875 0.619372 0.199504
613 1 0.304703 0.790914 0.129648
614 1 0.309448 0.75318 0.141404
615 1 0.305066 0.563611 0.229593
616 1 0.300336 0.618392 0.203884
617 1 0.314171 0.785333 0.112543
618 1 0.319085 0.750984 0.128559
619 1 0.314461 0.553315 0.215772
620 1 0.309647 0.6204 0.20046
621 1 0.323789 0.793026 0.118505
622 1 0.328486 0.749234 0.134184
623 1 0.323769 0.553229 0.208966
624 1 0.31911 0.620558 0.191651
625 1 0.333436 0.781007 0.127792
626 1 0.337851 0.73541 0.142216
627 1 0.333418 0.54468 0.204342
628 1 0.328608 0.609755 0.186481
629 1 0.342469 0.774623 0.129085
630 1 0.34733 0.736756 0.138775
631 1 0.342673 0.543521 0.211776
632 1 0.337969 0.602827 0.185952
633 1 0.352086 0.773771 0.115446
634 1 0.356902 0.73467 0.125654
635 1 0.352135 0.542259 0.21508
636 1 0.347437 0.605082 0.190109
637 1 0.361633 0.782071 0.11822
638 1 0.366273 0.741051 0.125158
639 1 0.361398 0.542378 0.209152
640 1 0.35689 0.606445 0.18527
641 1 0.370927 0.772519 0.101156
642 1 0.375508 0.727843 0.118134
643 1 0.370777 0.547503 0.213721
644 1 0.366097 0.605682 0.178057
645 1 0.380131 0.767034 0.0997842
646 1 0.385132 0.732586 0.107195
647 1 0.380157 0.545564 0.204639
648 1 0.375511 0.598689 0.17311
649 1 0.389863 0.769273 0.0878621
650 1 0.394572 0.729345 0.101887
651 1 0.38963 0.541926 0.196965
652 1 0.384857 0.598235 0.166275
653 1 0.399491 0.756744 0.0773964
654 1 0.404441 0.725973 0.0953265
655 1 0.3991 0.545267 0.205311
656 1 0.394342 0.604056 0.17067
657 1 0.409065 0.756666 0.0762689
658 1 0.413732 0.717656 0.101453
659 1 0.408878 0.5495 0.205277
660 1 0.403846 0.603527 0.167715
661 1 0.418405 0.746859 0.0791637
662 1 0.423117 0.710626 0.0957424
663 1 0.418115 0.538893 0.214009
664 1 0.4136 0.600493 0.174042
665 1 0.428069 0.735593 0.0789046
666 1 0.4326 0.706511 0.113855
667 1 0.427473 0.547333 0.224318
668 1 0.423001 0.596641 0.180059
669 1 0.437306 0.732344 0.092298
670 1 0.442119 0.696738 0.119355
671 1 0.436845 0.53555 0.237732
672 1 0.432426 0.591784 0.190673
673 1 0.446746 0.720874 0.0959807
674 1 0.451738 0.683942 0.119589
675 1 0.446529 0.524486 0.242208
676 1 0.441698 0.585642 0.205239
677 1 0.456577 0.701615 0.0944774
678 1 0.461582 0.662177 0.114215
679 1 0.455752 0.518939 0.250909
680 1 0.451271 0.573005 0.205783
681 1 0.466761 0.668098 0.103544
682 1 0.471477 0.615672 0.141424
683 1 0.465302 0.493427 0.252109
684 1 0.460817 0.557964 0.213538
685 1 0.476969 0.600804 0.169359
686 1 0.482438 0.522398 0.17702
687 1 0.474777 0.450878 0.285071
688 1 0.470551 0.509102 0.227654
689 1 0.487432 0.471884 0.190438
690 1 0.491783 0.416598 0.254215
691 1 0.484244 0.41095 0.359056
692 1 0.480273 0.45612 0.274224
693 1 0.496941 0.398236 0.290468
694 1 0.500491 0.397382 0.382794
695 1 0.492555 0.406648 0.474619
696 1 0.489477 0.409456 0.36949
697 1 0.505224 0.43099 0.421714
698 1 0.508015 0.495699 0.517143
699 1 0.500036 0.458838 0.599281
700 1 0.497545 0.415501 0.490285
701 1 0.51189 0.591269 0.550466
702 1 0.512824 0.700587 0.624987
703 1 0.505568 0.615992 0.71073
704 1 0.504786 0.517132 0.616948
705 1 0.51516 0.831807 0.630427
706 1 0.513936 0.958315 0.594631
707 1 0.507682 0.861876 0.736726
708 1 0.508937 0.725565 0.700851
709 1 0.513013 1.01277 0.473909
710 1 0.50999 0.988361 0.374254
711 1 0.504806 0.991624 0.561959
712 1 0.508809 0.964862 0.644426
713 1 0.509827 0.910542 0.270627
714 1 0.506736 0.842315 0.196021
715 1 0.500935 0.916875 0.352295
716 1 0.504937 0.973691 0.424716
717 1 0.506173 0.742152 0.104472
718 1 0.50314 0.681457 0.0291435
719 1 0.497713 0.797359 0.165691
720 1 0.501681 0.861609 0.230961
721 1 0.502743 0.553188 -0.0127177
722 1 0.500026 0.441739 -0.00585547
723 1 0.49435 0.625065 0.00983108
724 1 0.498133 0.710266 0.0605799
725 1 0.49999 0.331531 0.0680502
726 1 0.497052 0.258272 0.149165
727 1 0.491389 0.389421 0.0261395
728 1 0.495125 0.483224 -0.000885894
729 1 0.496886 0.190039 0.258904
730 1 0.49394 0.137878 0.346259
731 1 0.488374 0.217101 0.183091
732 1 0.492039 0.278069 0.115588
733 1 0.493732 0.0990331 0.467251
734 1 0.490776 0.0613152 0.555252
735 1 0.485296 0.0931456 0.377486
736 1 0.489218 0.145645 0.295754
737 1 0.490695 0.0606001 0.680188
738 1 0.487414 0.0745653 0.77937
739 1 0.481883 0.0351295 0.594482
740 1 0.4859 0.0549367 0.506455
741 1 0.487174 0.143447 0.888933
742 1 0.484872 0.245649 0.943967
743 1 0.478831 0.143254 0.791511
744 1 0.482499 0.0681677 0.726492
745 1 0.486367 0.371346 0.976925
746 1 0.48647 0.491544 0.925896
747 1 0.479813 0.385803 0.805359
748 1 0.480564 0.258829 0.866693
749 1 0.489549 0.587067 0.904658
750 1 0.491677 0.646172 0.813523
751 1 0.485078 0.541631 0.701582
752 1 0.483569 0.474969 0.808985
753 1 0.495822 0.709157 0.777761
754 1 0.498494 0.733129 0.68362
755 1 0.492378 0.614093 0.593617
756 1 0.489602 0.601172 0.701654
757 1 0.502426 0.788671 0.626284
758 1 0.505523 0.785597 0.540267
759 1 0.500475 0.62687 0.491282
760 1 0.49735 0.648299 0.586327
761 1 0.509793 0.8305 0.494121
762 1 0.513944 0.812504 0.44594
763 1 0.508997 0.647231 0.385824
764 1 0.505108 0.677708 0.469171
765 1 0.518646 0.841475 0.459594
766 1 0.523114 0.799521 0.4312
767 1 0.517956 0.633613 0.337079
768 1 0.513824 0.689317 0.387385
769 1 0.527547 0.837753 0.442766
770 1 0.53215 0.805963 0.414221
771 1 0.526921 0.630224 0.31514
772 1 0.5225 0.684682 0.358496
773 1 0.53689 0.832006 0.430383
774 1 0.541291 0.791084 0.397773
775 1 0.536333 0.627894 0.287906
776 1 0.531653 0.686825 0.33498
777 1 0.546007 0.82315 0.409857
778 1 0.550622 0.777958 0.391493
779 1 0.545658 0.615348 0.286323
780 1 0.541059 0.677552 0.313527
781 1 0.555313 0.814055 0.404549
782 1 0.559901 0.777559 0.383796
783 1 0.554852 0.594803 0.288799
784 1 0.550409 0.657853 0.32424
785 1 0.564704 0.80647 0.397579
786 1 0.569388 0.767446 0.37533
787 1 0.564226 0.591791 0.279643
788 1 0.559565 0.649181 0.319071
789 1 0.574071 0.802637 0.392817
790 1 0.578677 0.766246 0.37302
791 1 0.573632 0.586278 0.27825
792 1 0.568968 0.642851 0.308773
793 1 0.583381 0.794056 0.393046
794 1 0.588248 0.75554 0.37099
795 1 0.582931 0.575795 0.2826
796 1 0.578246 0.639077 0.309169
797 1 0.59289 0.789694 0.389815
798 1 0.597558 0.75204 0.367087
799 1 0.592273 0.569304 0.274509
800 1 0.587754 0.626688 0.308481
801 1 0.602249 0.794411 0.371301
802 1 0.606757 0.750548 0.355493
803 1 0.601729 0.564293 0.266735
804 1 0.597158 0.624294 0.303533
805 1 0.611517 0.782352 0.362638
806 1 0.616092 0.751323 0.340197
807 1 0.611266 0.557324 0.258535
808 1 0.606673 0.622944 0.289275
809 1 0.620795 0.784484 0.364055
810 1 0.625601 0.748039 0.354161
811 1 0.620646 0.563759 0.262394
812 1 0.615916 0.626417 0.277817
813 1 0.630262 0.786323 0.36659
814 1 0.634833 0.74397 0.352955
815 1 0.630427 0.556225 0.257894
816 1 0.625631 0.61738 0.293536
817 1 0.639523 0.777012 0.378986
818 1 0.644227 0.730547 0.375153
819 1 0.639593 0.549175 0.270744
820 1 0.634968 0.616522 0.289914
821 1 0.648889 0.75812 0.397923
822 1 0.653656 0.720829 0.377813
823 1 0.649042 0.548482 0.278106
824 1 0.644285 0.604415 0.307518
825 1 0.658263 0.758651 0.396836
826 1 0.662852 0.732877 0.372662
827 1 0.658392 0.54847 0.272621
828 1 0.65379 0.603109 0.309849
829 1 0.667746 0.776414 0.384361
830 1 0.672386 0.740374 0.362241
831 1 0.667833 0.549801 0.271902
832 1 0.663127 0.60574 0.307649
833 1 0.677107 0.773845 0.384498
834 1 0.681874 0.733613 0.358851
835 1 0.677025 0.554799 0.25809
836 1 0.672478 0.615508 0.292898
837 1 0.686556 0.768056 0.381689
838 1 0.691135 0.73401 0.351095
839 1 0.686407 0.556235 0.255653
840 1 0.681829 0.611569 0.288829
841 1 0.695747 0.781379 0.372195
842 1 0.70037 0.740165 0.352468
843 1 0.695851 0.556067 0.252175
844 1 0.69103 0.61658 0.278776
845 1 0.705137 0.771584 0.371629
846 1 0.709726 0.742012 0.342061
847 1 0.704874 0.554961 0.255586
848 1 0.700389 0.618362 0.278211
849 1 0.714372 0.778107 0.357408
850 1 0.719011 0.739363 0.33606
851 1 0.714332 0.549103 0.253234
852 1 0.709551 0.615186 0.277683
853 1 0.723674 0.780805 0.354331
854 1 0.728488 0.74743 0.328403
855 1 0.723888 0.555646 0.242464
856 1 0.718914 0.611651 0.275394
857 1 0.733233 0.79004 0.34294
858 1 0.737797 0.752971 0.32743
859 1 0.7335 0.553172 0.249655
860 1 0.728625 0.620547 0.27386
861 1 0.742778 0.787128 0.332693
862 1 0.74719 0.7444 0.316044
863 1 0.742648 0.561789 0.247794
864 1 0.738137 0.618459 0.272971
865 1 0.751813 0.785388 0.325492
866 1 0.756428 0.743115 0.304412
867 1 0.751995 0.557347 0.235384
868 1 0.747357 0.616982 0.267164
869 1 0.761121 0.784832 0.321124
870 1 0.765879 0.748043 0.309174
871 1 0.761243 0.547252 0.234263
872 1 0.756718 0.612885 0.253431
873 1 0.770578 0.789906 0.330979
874 1 0.775641 0.758496 0.314319
875 1 0.770398 0.561581 0.237956
876 1 0.765783 0.616485 0.259396
877 1 0.780228 0.799822 0.33261
878 1 0.784786 0.759802 0.304629
879 1 0.78005 0.564924 0.222057
880 1 0.775091 0.630777 0.25584
881 1 0.789515 0.800615 0.308864
882 1 0.794198 0.762454 0.2956
883 1 0.789647 0.560549 0.228837
884 1 0.784551 0.623046 0.250252
885 1 0.798952 0.799593 0.297773
886 1 0.803691 0.763262 0.287543
887 1 0.799049 0.563852 0.234643
888 1 0.794189 0.627035 0.253916
889 1 0.808426 0.801988 0.297628
890 1 0.813045 0.760741 0.293582
891 1 0.808259 0.555733 0.246922
892 1 0.803703 0.623379 0.25188
893 1 0.817639 0.799705 0.300737
894 1 0.822119 0.756536 0.290535
895 1 0.817799 0.552321 0.25424
896 1 0.813132 0.616075 0.263051
897 1 0.82696 0.796167 0.301386
898 1 0.831746 0.755422 0.289999
899 1 0.827159 0.554163 0.24966
900 1 0.822494 0.616863 0.267681
901 1 0.836611 0.796325 0.298755
902 1 0.84126 0.753809 0.287815
903 1 0.836398 0.551232 0.261765
904 1 0.83175 0.616295 0.269041
905 1 0.845851 0.799265 0.293731
906 1 0.850631 0.762347 0.287529
907 1 0.84612 0.546464 0.267798
908 1 0.841171 0.614562 0.275399
909 1 0.855279 0.805139 0.296137
910 1 0.859869 0.764543 0.296289
911 1 0.855503 0.554412 0.25972