ITEM: TIMESTEP
310000
ITEM: NUMBER OF ATOMS
976
ITEM: BOX BOUNDS ss ss ss
-0.0238218 289.706
-1.46818 8.79174
-2.43273 8.77211
ITEM: ATOMS id type xs ys zs
1 1 0.0043702 0.420398 0.217224
2 1 0.00857703 0.349826 0.217294
3 1 0.00432358 0.144399 0.217269
4 1 9.69973e-05 0.211257 0.217233
5 1 0.00434913 0.834868 0.217238
6 1 0.00856414 0.766286 0.217249
7 1 0.00429323 0.558266 0.217251
8 1 9.77254e-05 0.62723 0.217238
9 1 0.0134007 0.416579 0.220749
10 1 0.0181139 0.352977 0.226294
11 1 0.0136939 0.161974 0.224898
12 1 0.00898658 0.197893 0.21913
13 1 0.0225767 0.426275 0.225052
14 1 0.0272756 0.358906 0.229257
15 1 0.0229588 0.161709 0.228522
16 1 0.0183014 0.20802 0.229619
17 1 0.0318872 0.426084 0.220765
18 1 0.0366744 0.361304 0.233045
19 1 0.0322433 0.173311 0.230219
20 1 0.0275436 0.210222 0.23119
21 1 0.0415609 0.430349 0.236351
22 1 0.0462353 0.362237 0.239923
23 1 0.0416706 0.171689 0.234093
24 1 0.037008 0.218358 0.229821
25 1 0.0511292 0.432567 0.242874
26 1 0.0558227 0.366686 0.249488
27 1 0.0512305 0.182243 0.251044
28 1 0.0463554 0.217997 0.243044
29 1 0.0603624 0.434005 0.236073
30 1 0.0651975 0.367656 0.23014
31 1 0.0605419 0.179221 0.242193
32 1 0.0560683 0.224147 0.250412
33 1 0.0697225 0.439594 0.229297
34 1 0.0745235 0.37091 0.239559
35 1 0.069879 0.182285 0.248798
36 1 0.0652787 0.220426 0.238811
37 1 0.0791798 0.44684 0.235739
38 1 0.0838944 0.385869 0.249296
39 1 0.0793135 0.182362 0.259654
40 1 0.0746113 0.223575 0.248507
41 1 0.0885656 0.453877 0.240793
42 1 0.0932776 0.392149 0.241968
43 1 0.0886168 0.205759 0.274196
44 1 0.0839045 0.239721 0.269894
45 1 0.0978574 0.455533 0.221513
46 1 0.102605 0.391825 0.237652
47 1 0.0981449 0.210363 0.285304
48 1 0.0934987 0.249527 0.272101
49 1 0.107337 0.453857 0.230484
50 1 0.111992 0.395582 0.246892
51 1 0.107638 0.21403 0.284884
52 1 0.102778 0.251645 0.270329
53 1 0.116679 0.457862 0.228593
54 1 0.121393 0.388237 0.248476
55 1 0.11679 0.209818 0.298347
56 1 0.112322 0.255404 0.280961
57 1 0.126013 0.461346 0.23297
58 1 0.130775 0.404561 0.257238
59 1 0.126373 0.217397 0.29851
60 1 0.121513 0.247844 0.289896
61 1 0.135308 0.47147 0.242544
62 1 0.140008 0.411654 0.268895
63 1 0.135558 0.230124 0.299793
64 1 0.130861 0.264594 0.293072
65 1 0.144693 0.471102 0.255173
66 1 0.149298 0.402901 0.275706
67 1 0.144711 0.223611 0.307783
68 1 0.140043 0.271945 0.29632
69 1 0.154076 0.472531 0.26102
70 1 0.158756 0.408198 0.273528
71 1 0.154199 0.225968 0.316754
72 1 0.149399 0.261461 0.302865
73 1 0.163478 0.470211 0.260601
74 1 0.168325 0.410708 0.282057
75 1 0.163362 0.230375 0.325532
76 1 0.158789 0.267657 0.317323
77 1 0.173012 0.475845 0.262475
78 1 0.177656 0.412729 0.28945
79 1 0.172885 0.23092 0.3328
80 1 0.168187 0.267157 0.31998
81 1 0.182418 0.46906 0.260987
82 1 0.187086 0.401812 0.282339
83 1 0.18252 0.227078 0.341508
84 1 0.177764 0.270925 0.326469
85 1 0.191682 0.464304 0.260813
86 1 0.196386 0.403232 0.283498
87 1 0.191785 0.225192 0.351318
88 1 0.187173 0.262477 0.329816
89 1 0.201193 0.464621 0.267902
90 1 0.205931 0.389862 0.289011
91 1 0.201052 0.21287 0.336458
92 1 0.196369 0.26111 0.334119
93 1 0.2106 0.452213 0.264728
94 1 0.215609 0.391637 0.289457
95 1 0.210424 0.202791 0.353445
96 1 0.205757 0.247698 0.325444
97 1 0.220257 0.455156 0.268828
98 1 0.224809 0.389076 0.289062
99 1 0.219866 0.210253 0.347081
100 1 0.215203 0.246581 0.335539
101 1 0.229431 0.454635 0.264093
102 1 0.23406 0.383008 0.28533
103 1 0.229236 0.214286 0.35105
104 1 0.224634 0.253165 0.335905
105 1 0.238951 0.441566 0.262864
106 1 0.243629 0.379708 0.281005
107 1 0.238939 0.206426 0.35771
108 1 0.234171 0.250645 0.340802
109 1 0.248325 0.437498 0.249846
110 1 0.253125 0.374994 0.275186
111 1 0.24839 0.210708 0.357666
112 1 0.243649 0.247935 0.33899
113 1 0.257731 0.432891 0.24962
114 1 0.262432 0.371481 0.275115
115 1 0.257653 0.210347 0.362749
116 1 0.252984 0.248308 0.339564
117 1 0.267212 0.440164 0.259224
118 1 0.271747 0.382977 0.291208
119 1 0.267108 0.217281 0.37193
120 1 0.262515 0.244763 0.340976
121 1 0.276483 0.44202 0.263914
122 1 0.281054 0.386386 0.293102
123 1 0.276519 0.219107 0.378936
124 1 0.271899 0.255109 0.360094
125 1 0.286257 0.437092 0.267058
126 1 0.290805 0.376459 0.288334
127 1 0.286059 0.215878 0.368799
128 1 0.281076 0.256746 0.34984
129 1 0.295392 0.441107 0.261321
130 1 0.30024 0.37963 0.291569
131 1 0.295528 0.209014 0.369195
132 1 0.290875 0.248124 0.352068
133 1 0.304727 0.439286 0.258895
134 1 0.309531 0.381697 0.289523
135 1 0.304789 0.215949 0.369273
136 1 0.30008 0.249676 0.35605
137 1 0.314119 0.439785 0.258668
138 1 0.319025 0.382774 0.288004
139 1 0.314037 0.21236 0.360182
140 1 0.309342 0.25542 0.350558
141 1 0.323669 0.442375 0.262606
142 1 0.328451 0.378023 0.277863
143 1 0.323469 0.208421 0.35491
144 1 0.318655 0.249102 0.341859
145 1 0.333209 0.435811 0.250366
146 1 0.33771 0.374565 0.278228
147 1 0.332944 0.214601 0.362535
148 1 0.328171 0.25177 0.342519
149 1 0.342473 0.433653 0.250896
150 1 0.346991 0.376782 0.28275
151 1 0.34225 0.220737 0.366233
152 1 0.337768 0.251916 0.347596
153 1 0.351609 0.43304 0.263792
154 1 0.356638 0.38395 0.296667
155 1 0.351627 0.22343 0.383269
156 1 0.346984 0.252409 0.351163
157 1 0.361266 0.448956 0.270771
158 1 0.366212 0.397302 0.301137
159 1 0.361271 0.242097 0.396726
160 1 0.356433 0.264575 0.373514
161 1 0.370752 0.460294 0.26962
162 1 0.375421 0.401658 0.309366
163 1 0.370522 0.239909 0.387865
164 1 0.365892 0.277218 0.374367
165 1 0.380062 0.459481 0.282591
166 1 0.384769 0.400282 0.317479
167 1 0.379923 0.239773 0.400612
168 1 0.375124 0.274777 0.37967
169 1 0.38949 0.450001 0.280301
170 1 0.393961 0.393794 0.310409
171 1 0.389266 0.23475 0.396919
172 1 0.384628 0.272601 0.381834
173 1 0.398611 0.444851 0.275901
174 1 0.40324 0.378671 0.308077
175 1 0.398409 0.220412 0.390163
176 1 0.393846 0.265095 0.3723
177 1 0.407951 0.431323 0.270214
178 1 0.412552 0.370493 0.292593
179 1 0.407585 0.211676 0.382302
180 1 0.403007 0.254069 0.375354
181 1 0.417258 0.422392 0.265134
182 1 0.421927 0.366746 0.308334
183 1 0.416849 0.217445 0.402059
184 1 0.41229 0.247345 0.364067
185 1 0.426551 0.424189 0.28113
186 1 0.431171 0.367236 0.325193
187 1 0.426034 0.209444 0.416276
188 1 0.421538 0.252069 0.388314
189 1 0.435964 0.41146 0.283977
190 1 0.440257 0.35015 0.324547
191 1 0.435299 0.197315 0.426695
192 1 0.430664 0.244134 0.4026
193 1 0.445238 0.398461 0.292473
194 1 0.449708 0.332002 0.332994
195 1 0.444519 0.186949 0.419035
196 1 0.439775 0.231367 0.396116
197 1 0.454268 0.386104 0.305475
198 1 0.458743 0.3297 0.350706
199 1 0.453574 0.169334 0.429592
200 1 0.449277 0.211906 0.401167
201 1 0.463436 0.377394 0.332345
202 1 0.467779 0.322538 0.38504
203 1 0.4627 0.166844 0.457315
204 1 0.458131 0.205656 0.4185
205 1 0.472655 0.374501 0.393365
206 1 0.476581 0.335256 0.471617
207 1 0.471637 0.184936 0.503415
208 1 0.467341 0.20466 0.450516
209 1 0.481277 0.381411 0.485224
210 1 0.484474 0.351003 0.581428
211 1 0.47911 0.218597 0.625623
212 1 0.475711 0.224574 0.545454
213 1 0.489338 0.390613 0.585574
214 1 0.491835 0.393441 0.694657
215 1 0.48577 0.280092 0.765683
216 1 0.482999 0.269908 0.673286
217 1 0.496517 0.455879 0.717872
218 1 0.498369 0.503707 0.826413
219 1 0.491932 0.393412 0.907677
220 1 0.489703 0.33854 0.803729
221 1 0.501953 0.600116 0.833276
222 1 0.50141 0.727639 0.891542
223 1 0.495644 0.608181 0.994161
224 1 0.495402 0.482403 0.937379
225 1 0.502955 0.843211 0.831215
226 1 0.499395 0.932542 0.768578
227 1 0.494534 0.832592 0.92535
228 1 0.497163 0.729422 0.969988
229 1 0.500014 0.961582 0.633685
230 1 0.495795 0.942354 0.552072
231 1 0.491396 0.904889 0.720391
232 1 0.494451 0.907847 0.817312
233 1 0.49658 0.909325 0.420417
234 1 0.492984 0.863071 0.332747
235 1 0.488133 0.892774 0.498082
236 1 0.491107 0.914883 0.598681
237 1 0.493958 0.794057 0.221879
238 1 0.490217 0.744741 0.135657
239 1 0.485392 0.834842 0.27867
240 1 0.488164 0.86746 0.374368
241 1 0.490808 0.643065 0.0423608
242 1 0.48685 0.553523 0.00272919
243 1 0.482186 0.709797 0.0894747
244 1 0.485157 0.773293 0.16924
245 1 0.4871 0.40668 0.0131582
246 1 0.483117 0.326881 0.048225
247 1 0.47899 0.494123 -0.0011551
248 1 0.482134 0.600605 0.0102201
249 1 0.483842 0.23004 0.153955
250 1 0.479971 0.174464 0.230418
251 1 0.47521 0.290149 0.105802
252 1 0.478201 0.362376 0.038954
253 1 0.480491 0.0987608 0.345003
254 1 0.476661 0.0509 0.421322
255 1 0.472223 0.115669 0.266392
256 1 0.475109 0.194326 0.19557
257 1 0.477132 0.0236996 0.556884
258 1 0.472916 0.0474947 0.641987
259 1 0.468685 0.00344115 0.460303
260 1 0.471878 0.0354948 0.372886
261 1 0.474031 0.14391 0.738537
262 1 0.472904 0.28678 0.715057
263 1 0.466462 0.169069 0.633978
264 1 0.467854 0.03442 0.586769
265 1 0.476327 0.388296 0.719667
266 1 0.477561 0.489047 0.632875
267 1 0.470251 0.417951 0.566674
268 1 0.468716 0.301291 0.638028
269 1 0.482203 0.545051 0.616232
270 1 0.484393 0.589992 0.505278
271 1 0.476848 0.577252 0.441603
272 1 0.474042 0.513298 0.538847
273 1 0.489358 0.601634 0.495726
274 1 0.492605 0.592469 0.389987
275 1 0.485381 0.624264 0.309973
276 1 0.481598 0.621203 0.3967
277 1 0.498082 0.588044 0.380188
278 1 0.501832 0.549223 0.288928
279 1 0.494781 0.557591 0.204861
280 1 0.490331 0.602539 0.275044
281 1 0.507011 0.564268 0.296498
282 1 0.51127 0.505561 0.239348
283 1 0.505259 0.408798 0.167512
284 1 0.500207 0.481345 0.181435
285 1 0.516744 0.538367 0.255901
286 1 0.521035 0.48207 0.211079
287 1 0.515461 0.356551 0.117583
288 1 0.510666 0.399879 0.14922
289 1 0.526258 0.521169 0.24027
290 1 0.530779 0.455673 0.197287
291 1 0.5252 0.328561 0.0937396
292 1 0.520551 0.371654 0.126877
293 1 0.535459 0.489098 0.236834
294 1 0.540065 0.436661 0.188565
295 1 0.534741 0.299007 0.0846246
296 1 0.530081 0.342172 0.113292
297 1 0.545241 0.48705 0.217868
298 1 0.549845 0.427324 0.180309
299 1 0.544541 0.281259 0.0785963
300 1 0.53975 0.323401 0.104395
301 1 0.55487 0.473555 0.212013
302 1 0.559577 0.421233 0.16901
303 1 0.554492 0.276787 0.0658761
304 1 0.549603 0.307539 0.0924538
305 1 0.56417 0.472948 0.201095
306 1 0.568645 0.416881 0.156099
307 1 0.563934 0.27152 0.0588006
308 1 0.559243 0.30499 0.0901732
309 1 0.573384 0.464512 0.188144
310 1 0.578178 0.406325 0.149726
311 1 0.573363 0.257037 0.0537653
312 1 0.568808 0.300173 0.0854214
313 1 0.582812 0.452425 0.191719
314 1 0.58754 0.389632 0.160879
315 1 0.582615 0.251956 0.0435364
316 1 0.57804 0.287685 0.0674656
317 1 0.592165 0.448333 0.192987
318 1 0.596903 0.391669 0.15847
319 1 0.591922 0.247261 0.0565236
320 1 0.587315 0.279133 0.0748481
321 1 0.601662 0.44146 0.196873
322 1 0.606349 0.385111 0.160444
323 1 0.601467 0.243178 0.0546052
324 1 0.596683 0.275343 0.0799003
325 1 0.610955 0.442009 0.197151
326 1 0.615476 0.378656 0.160038
327 1 0.610861 0.228557 0.0631734
328 1 0.606206 0.271872 0.0757001
329 1 0.620196 0.444643 0.191373
330 1 0.62503 0.386827 0.162659
331 1 0.62007 0.216162 0.0650753
332 1 0.615491 0.256951 0.0922852
333 1 0.629793 0.44351 0.198611
334 1 0.634349 0.391412 0.164439
335 1 0.629707 0.223767 0.0780598
336 1 0.624922 0.254714 0.0876682
337 1 0.639271 0.445982 0.201956
338 1 0.643778 0.385527 0.171044
339 1 0.638891 0.221255 0.0880851
340 1 0.634363 0.263656 0.103304
341 1 0.648449 0.446716 0.195932
342 1 0.65305 0.385449 0.163862
343 1 0.648279 0.210356 0.0983988
344 1 0.643703 0.253256 0.112989
345 1 0.657739 0.449182 0.193782
346 1 0.662418 0.385496 0.173465
347 1 0.657757 0.217373 0.0932218
348 1 0.653006 0.251387 0.109248
349 1 0.667119 0.439646 0.2077
350 1 0.671897 0.383022 0.185715
351 1 0.667164 0.21045 0.112946
352 1 0.6625 0.253374 0.118246
353 1 0.676787 0.443629 0.220031
354 1 0.681385 0.385608 0.189553
355 1 0.676605 0.212442 0.123343
356 1 0.671831 0.246954 0.128392
357 1 0.686142 0.440021 0.218469
358 1 0.690827 0.3777 0.189996
359 1 0.685968 0.216442 0.117803
360 1 0.681157 0.252708 0.13246
361 1 0.695459 0.439719 0.215465
362 1 0.700191 0.381072 0.185551
363 1 0.695578 0.209418 0.121942
364 1 0.690832 0.248381 0.139256
365 1 0.704679 0.446104 0.203888
366 1 0.709575 0.386647 0.192367
367 1 0.705043 0.20118 0.137957
368 1 0.700269 0.243219 0.135625
369 1 0.714218 0.455276 0.208179
370 1 0.7189 0.393645 0.191394
371 1 0.71438 0.21367 0.150269
372 1 0.709692 0.24648 0.155264
373 1 0.723658 0.454183 0.212318
374 1 0.728311 0.384983 0.19866
375 1 0.723717 0.204219 0.154626
376 1 0.719073 0.25283 0.158574
377 1 0.732883 0.451767 0.210745
378 1 0.737813 0.385182 0.195748
379 1 0.733162 0.201119 0.153538
380 1 0.72861 0.246205 0.162675
381 1 0.742453 0.457264 0.204892
382 1 0.74721 0.388522 0.190657
383 1 0.742659 0.207812 0.150422
384 1 0.737926 0.244128 0.160811
385 1 0.751866 0.451327 0.210762
386 1 0.75657 0.390414 0.187937
387 1 0.752044 0.207284 0.136274
388 1 0.747193 0.247446 0.154304
389 1 0.761499 0.452363 0.21299
390 1 0.766002 0.3916 0.189972
391 1 0.76133 0.211559 0.136072
392 1 0.756645 0.249184 0.145776
393 1 0.770919 0.452518 0.215217
394 1 0.775605 0.384332 0.199189
395 1 0.77091 0.216072 0.134618
396 1 0.765949 0.255052 0.14677
397 1 0.780293 0.444144 0.213204
398 1 0.785056 0.380407 0.196939
399 1 0.780293 0.204626 0.151096
400 1 0.775585 0.246208 0.150737
401 1 0.789854 0.445598 0.206726
402 1 0.794511 0.378131 0.195747
403 1 0.789829 0.194709 0.164045
404 1 0.785238 0.2346 0.165051
405 1 0.799144 0.446365 0.211647
406 1 0.8039 0.382027 0.198262
407 1 0.799298 0.199602 0.167574
408 1 0.794468 0.237613 0.17419
409 1 0.80845 0.449546 0.219041
410 1 0.813031 0.386603 0.205006
411 1 0.80853 0.202582 0.173982
412 1 0.803896 0.238622 0.171384
413 1 0.81765 0.458515 0.219843
414 1 0.822509 0.394491 0.208987
415 1 0.817874 0.204895 0.19233
416 1 0.813135 0.244991 0.182474
417 1 0.827121 0.46368 0.222144
418 1 0.831749 0.394335 0.217451
419 1 0.827103 0.209022 0.193922
420 1 0.822429 0.247506 0.196297
421 1 0.836418 0.458645 0.232768
422 1 0.841033 0.394513 0.221068
423 1 0.836651 0.213786 0.189306
424 1 0.831918 0.248059 0.194568
425 1 0.846071 0.460519 0.224988
426 1 0.850608 0.39117 0.21535
427 1 0.845852 0.206557 0.197941
428 1 0.84125 0.254201 0.200636
429 1 0.855157 0.45966 0.227446
430 1 0.859887 0.393109 0.224165
431 1 0.855147 0.207274 0.19766
432 1 0.850518 0.246641 0.205307
433 1 0.864548 0.460156 0.23409
434 1 0.869196 0.388084 0.228426
435 1 0.864637 0.206034 0.210205
436 1 0.85991 0.249394 0.208439
437 1 0.873756 0.456261 0.22956
438 1 0.878473 0.390147 0.227937
439 1 0.873885 0.205211 0.189301
440 1 0.869218 0.24399 0.20205
441 1 0.883093 0.45326 0.233112
442 1 0.887783 0.390641 0.225636
443 1 0.883161 0.209252 0.193565
444 1 0.878461 0.249316 0.197832
445 1 0.892505 0.452763 0.236752
446 1 0.897172 0.388389 0.230918
447 1 0.892486 0.207356 0.197933
448 1 0.887836 0.246776 0.205384
449 1 0.902054 0.451656 0.253204
450 1 0.906513 0.381062 0.247591
451 1 0.901863 0.198897 0.208698
452 1 0.897391 0.2435 0.212464
453 1 0.911358 0.446192 0.249582
454 1 0.916121 0.379967 0.233187
455 1 0.91137 0.189625 0.206209
456 1 0.906519 0.238378 0.215978
457 1 0.920849 0.444789 0.238483
458 1 0.925614 0.37108 0.235352
459 1 0.920936 0.188172 0.206329
460 1 0.916245 0.23354 0.21026
461 1 0.930515 0.43527 0.238829
462 1 0.935177 0.365688 0.236176
463 1 0.930396 0.181706 0.220809
464 1 0.925688 0.227681 0.21945
465 1 0.939741 0.434181 0.242115
466 1 0.944373 0.365402 0.23636
467 1 0.939801 0.184649 0.237017
468 1 0.934915 0.22173 0.233627
469 1 0.949248 0.435282 0.240226
470 1 0.954038 0.36421 0.230536
471 1 0.949195 0.175216 0.221973
472 1 0.944657 0.218807 0.235294
473 1 0.958751 0.432814 0.234693
474 1 0.963192 0.366609 0.232858
475 1 0.958672 0.179534 0.219657
476 1 0.953867 0.21777 0.224193
477 1 0.967916 0.433246 0.234886
478 1 0.972563 0.364245 0.226326
479 1 0.967833 0.179265 0.223758
480 1 0.963228 0.221252 0.223544
481 1 0.977395 0.426891 0.233313
482 1 0.981912 0.362882 0.226292
483 1 0.977437 0.176376 0.230525
484 1 0.972647 0.216514 0.227654
485 1 0.986604 0.425315 0.222194
486 1 0.991187 0.355422 0.21857
487 1 0.986598 0.175595 0.220025
488 1 0.98191 0.218096 0.22421
489 1 0.0131569 0.810152 0.217742
490 1 0.0177685 0.77303 0.219521
491 1 0.013354 0.558984 0.220057
492 1 0.00875341 0.624725 0.218037
493 1 0.0225129 0.817971 0.212835
494 1 0.0271799 0.777147 0.205585
495 1 0.0226438 0.565185 0.219012
496 1 0.0178982 0.628922 0.221879
497 1 0.032048 0.82122 0.2102
498 1 0.036848 0.786228 0.204196
499 1 0.0320082 0.567355 0.206247
500 1 0.0272211 0.633015 0.202775
501 1 0.0414056 0.82394 0.206196
502 1 0.046258 0.789891 0.209969
503 1 0.041507 0.57153 0.227049
504 1 0.0367791 0.631676 0.209166
505 1 0.0508109 0.833505 0.206433
506 1 0.0555478 0.792217 0.206068
507 1 0.0509302 0.57317 0.238426
508 1 0.0461568 0.640037 0.224813
509 1 0.0602123 0.831295 0.206152
510 1 0.0649383 0.791152 0.218446
511 1 0.060273 0.579612 0.231768
512 1 0.0556062 0.648518 0.227758
513 1 0.0694938 0.840909 0.212061
514 1 0.0742925 0.8034 0.21722
515 1 0.0696273 0.579005 0.226946
516 1 0.064978 0.645141 0.223817
517 1 0.0790933 0.848262 0.214333
518 1 0.0837612 0.809451 0.214893
519 1 0.0792515 0.586548 0.222722
520 1 0.0743382 0.654316 0.219707
521 1 0.0884446 0.852326 0.214662
522 1 0.0933839 0.811743 0.207684
523 1 0.0885705 0.591704 0.22448
524 1 0.083881 0.661252 0.221833
525 1 0.0980463 0.845401 0.195802
526 1 0.102713 0.799085 0.180987
527 1 0.0981224 0.596451 0.21226
528 1 0.0933875 0.66275 0.213676
529 1 0.107205 0.838612 0.168371
530 1 0.111908 0.799655 0.159941
531 1 0.10726 0.593452 0.202042
532 1 0.102598 0.655665 0.192154
533 1 0.116536 0.834752 0.135848
534 1 0.121308 0.797473 0.138484
535 1 0.116627 0.590917 0.190156
536 1 0.111774 0.655872 0.1853
537 1 0.126 0.836186 0.119348
538 1 0.13082 0.799274 0.124006
539 1 0.125903 0.599424 0.194202
540 1 0.121293 0.658419 0.173743
541 1 0.135566 0.843058 0.111815
542 1 0.140241 0.803809 0.132843
543 1 0.135334 0.604935 0.20606
544 1 0.130611 0.669535 0.176756
545 1 0.144952 0.84861 0.120787
546 1 0.149539 0.80384 0.129219
547 1 0.144914 0.602678 0.21049
548 1 0.140135 0.67028 0.184757
549 1 0.154224 0.841064 0.11467
550 1 0.158719 0.801315 0.13841
551 1 0.15407 0.60781 0.214233
552 1 0.149501 0.668545 0.188616
553 1 0.163407 0.844053 0.121902
554 1 0.168277 0.800642 0.142278
555 1 0.1637 0.603273 0.213742
556 1 0.158855 0.669516 0.189621
557 1 0.172875 0.843789 0.134676
558 1 0.177632 0.808418 0.141565
559 1 0.173017 0.606855 0.211225
560 1 0.168275 0.668589 0.19468
561 1 0.182241 0.84276 0.129948
562 1 0.187095 0.79719 0.143178
563 1 0.182263 0.599494 0.209258
564 1 0.177788 0.670247 0.194405
565 1 0.19179 0.835088 0.132488
566 1 0.196442 0.789298 0.142644
567 1 0.19157 0.594473 0.216813
568 1 0.186943 0.663664 0.186776
569 1 0.201316 0.819221 0.111929
570 1 0.205807 0.775695 0.122811
571 1 0.201114 0.593346 0.219293
572 1 0.196334 0.658308 0.198002
573 1 0.210573 0.811716 0.105021
574 1 0.215354 0.770601 0.124408
575 1 0.210505 0.58673 0.207631
576 1 0.205918 0.648207 0.189379
577 1 0.220063 0.807063 0.109346
578 1 0.224951 0.773952 0.130769
579 1 0.220171 0.584529 0.215295
580 1 0.215275 0.642073 0.186899
581 1 0.229479 0.817293 0.108685
582 1 0.234159 0.775981 0.122964
583 1 0.229656 0.578022 0.203966
584 1 0.224747 0.639305 0.188388
585 1 0.238882 0.81008 0.10875
586 1 0.243589 0.766488 0.120147
587 1 0.238999 0.570178 0.20224
588 1 0.234306 0.641315 0.177164
589 1 0.248349 0.806864 0.105805
590 1 0.252966 0.762844 0.124973
591 1 0.248439 0.567236 0.195504
592 1 0.243745 0.6267 0.169756
593 1 0.257743 0.798558 0.109624
594 1 0.262552 0.760401 0.130237
595 1 0.257728 0.559527 0.199529
596 1 0.253162 0.629085 0.175469
597 1 0.267317 0.800519 0.122219
598 1 0.272078 0.771898 0.135855
599 1 0.267168 0.570478 0.207356
600 1 0.262381 0.628022 0.185299
601 1 0.276688 0.806764 0.123161
602 1 0.281254 0.764802 0.138788
603 1 0.276668 0.566985 0.202114
604 1 0.271844 0.636288 0.185698
605 1 0.285863 0.804415 0.108813
606 1 0.290539 0.759605 0.107293
607 1 0.286149 0.570625 0.204931
608 1 0.281185 0.627805 0.179023
609 1 0.295345 0.793492 0.0930952
610 1 0.300012 0.749233 0.108069
611 1 0.295342 0.566782 0.192833
612 1 0.290645 0.631708 0.167499
613 1 0.304792 0.792135 0.0909497
614 1 0.309573 0.751953 0.105142
615 1 0.30473 0.560176 0.19063
616 1 0.300063 0.623021 0.165337
617 1 0.314122 0.788661 0.0835993
618 1 0.318845 0.755825 0.106257
619 1 0.314176 0.564006 0.198127
620 1 0.309413 0.621878 0.165021
621 1 0.323617 0.79507 0.0969545
622 1 0.328382 0.757602 0.11499
623 1 0.323603 0.569886 0.205281
624 1 0.318828 0.624054 0.177256
625 1 0.333135 0.79914 0.0972763
626 1 0.337876 0.754049 0.115046
627 1 0.332982 0.566431 0.200736
628 1 0.328209 0.624657 0.16909
629 1 0.342611 0.789104 0.0863378
630 1 0.347163 0.741873 0.101309
631 1 0.342349 0.56489 0.198859
632 1 0.337612 0.626495 0.176084
633 1 0.351766 0.781861 0.0798483
634 1 0.35651 0.751488 0.0983944
635 1 0.351739 0.562698 0.197992
636 1 0.346972 0.623168 0.175471
637 1 0.361122 0.783799 0.0731487
638 1 0.36611 0.753526 0.0888665
639 1 0.361151 0.572953 0.201372
640 1 0.356186 0.62399 0.164029
641 1 0.370887 0.786013 0.0778253
642 1 0.375481 0.753133 0.100598
643 1 0.370668 0.578281 0.197382
644 1 0.365795 0.633838 0.16364
645 1 0.380146 0.777647 0.072967
646 1 0.384985 0.744659 0.0922522
647 1 0.380105 0.580117 0.209976
648 1 0.375405 0.630997 0.170883
649 1 0.389621 0.771216 0.064507
650 1 0.39447 0.739243 0.0936725
651 1 0.389542 0.57093 0.205262
652 1 0.384901 0.629277 0.177013
653 1 0.399123 0.767185 0.0640173
654 1 0.403701 0.723671 0.0867566
655 1 0.39875 0.558975 0.206999
656 1 0.39416 0.623737 0.171865
657 1 0.408253 0.759414 0.0677243
658 1 0.412963 0.731934 0.0902595
659 1 0.40789 0.545083 0.19338
660 1 0.403236 0.608002 0.163277
661 1 0.417853 0.763617 0.0765497
662 1 0.422584 0.720456 0.0939624
663 1 0.417565 0.549527 0.196019
664 1 0.41268 0.607477 0.158818
665 1 0.427347 0.75403 0.0729046
666 1 0.432126 0.710122 0.0965274
667 1 0.426837 0.540118 0.207348
668 1 0.422369 0.603384 0.170038
669 1 0.43688 0.74042 0.0830339
670 1 0.441615 0.699357 0.101707
671 1 0.43633 0.535776 0.215998
672 1 0.431738 0.591063 0.174561
673 1 0.446311 0.720295 0.0794063
674 1 0.45118 0.686841 0.109773
675 1 0.445574 0.521545 0.222674
676 1 0.441109 0.587069 0.181872
677 1 0.456181 0.701623 0.0937974
678 1 0.460997 0.661763 0.117947
679 1 0.455175 0.499996 0.225536
680 1 0.450442 0.564708 0.190945
681 1 0.46607 0.669782 0.107484
682 1 0.470844 0.611421 0.138035
683 1 0.464407 0.484886 0.248915
684 1 0.460051 0.548588 0.197813
685 1 0.476197 0.593401 0.145417
686 1 0.480892 0.523677 0.184459
687 1 0.473791 0.457616 0.294981
688 1 0.469446 0.512395 0.229005
689 1 0.485586 0.470151 0.186523
690 1 0.490562 0.400644 0.256429
691 1 0.483283 0.423374 0.376954
692 1 0.479095 0.466236 0.29081
693 1 0.495572 0.378819 0.294111
694 1 0.499439 0.383263 0.381655
695 1 0.49169 0.405892 0.477558
696 1 0.488325 0.412252 0.373823
697 1 0.503861 0.428778 0.430378
698 1 0.50698 0.493463 0.528683
699 1 0.499076 0.459967 0.606283
700 1 0.496718 0.424845 0.494691
701 1 0.51078 0.576702 0.568871
702 1 0.512528 0.671038 0.656581
703 1 0.504968 0.592647 0.73363
704 1 0.503824 0.509456 0.629617
705 1 0.514808 0.798581 0.669594
706 1 0.513665 0.939999 0.637607
707 1 0.50738 0.837668 0.772874
708 1 0.508552 0.698344 0.741794
709 1 0.513513 0.981766 0.514624
710 1 0.510411 0.961395 0.411247
711 1 0.504806 0.973658 0.593953
712 1 0.508644 0.936467 0.681737
713 1 0.509926 0.888793 0.301569
714 1 0.506875 0.818746 0.223077
715 1 0.501489 0.909901 0.379586
716 1 0.505497 0.961044 0.460306
717 1 0.506905 0.72023 0.133755
718 1 0.504259 0.645614 0.0638625
719 1 0.49861 0.775627 0.188168
720 1 0.502294 0.838992 0.262271
721 1 0.503489 0.515966 0.0133244
722 1 0.50043 0.407785 0.00498694
723 1 0.495528 0.600554 0.0215233
724 1 0.499263 0.677834 0.0825543
725 1 0.500088 0.300277 0.0786441
726 1 0.497174 0.227755 0.159917
727 1 0.491695 0.367312 0.0329334
728 1 0.495661 0.454239 0.000745871
729 1 0.497126 0.179145 0.27648
730 1 0.493952 0.140645 0.359961
731 1 0.488673 0.206727 0.196963
732 1 0.492434 0.253922 0.115414
733 1 0.493541 0.113034 0.481245
734 1 0.490366 0.0888188 0.574469
735 1 0.485222 0.106077 0.392673
736 1 0.489146 0.147554 0.31659
737 1 0.490038 0.0832286 0.694599
738 1 0.487199 0.0801839 0.793675
739 1 0.481951 0.0319635 0.603317
740 1 0.485696 0.0731231 0.516807
741 1 0.486697 0.142527 0.901796
742 1 0.483962 0.23519 0.950641
743 1 0.478769 0.134997 0.795901
744 1 0.482515 0.0624416 0.734577
745 1 0.485325 0.360134 0.983019
746 1 0.485687 0.489175 0.942498
747 1 0.479473 0.376869 0.821769
748 1 0.479873 0.247976 0.87659
749 1 0.488954 0.584172 0.921153
750 1 0.491399 0.638716 0.827697
751 1 0.484803 0.54295 0.721842
752 1 0.482925 0.474814 0.830215
753 1 0.49541 0.690643 0.792207
754 1 0.498261 0.706223 0.69719
755 1 0.491699 0.62205 0.60367
756 1 0.489351 0.602878 0.717397
757 1 0.502248 0.763236 0.658106
758 1 0.505611 0.762426 0.573778
759 1 0.499554 0.640206 0.490879
760 1 0.496427 0.652281 0.590329
761 1 0.509715 0.809663 0.536005
762 1 0.513694 0.78113 0.484533
763 1 0.508094 0.645358 0.393444
764 1 0.504521 0.679105 0.482915
765 1 0.518256 0.816558 0.500623
766 1 0.522973 0.783078 0.470407
767 1 0.517374 0.631073 0.347919
768 1 0.513036 0.681776 0.402721
769 1 0.527741 0.814978 0.479697
770 1 0.532223 0.78223 0.43696
771 1 0.5267 0.61996 0.332544
772 1 0.522063 0.677996 0.382128
773 1 0.536975 0.812684 0.453289
774 1 0.541376 0.76953 0.420838
775 1 0.5362 0.603282 0.310524
776 1 0.531719 0.668614 0.356357
777 1 0.545961 0.793893 0.438483
778 1 0.550614 0.766792 0.404165
779 1 0.545446 0.600016 0.296184
780 1 0.540856 0.657996 0.342105
781 1 0.555337 0.804411 0.420381
782 1 0.559928 0.770195 0.393774
783 1 0.554892 0.589451 0.289384
784 1 0.550262 0.653885 0.32329
785 1 0.564697 0.803863 0.405021
786 1 0.569154 0.764057 0.379478
787 1 0.56429 0.592111 0.273443
788 1 0.559635 0.649117 0.315031
789 1 0.574011 0.793176 0.395008
790 1 0.578581 0.752311 0.367404
791 1 0.5737 0.577496 0.267361
792 1 0.569268 0.641353 0.305486
793 1 0.583331 0.785538 0.384427
794 1 0.587805 0.749762 0.360539
795 1 0.582998 0.565197 0.274785
796 1 0.578437 0.629616 0.304257
797 1 0.592458 0.783042 0.388522
798 1 0.597226 0.743307 0.377808
799 1 0.592333 0.565616 0.271463
800 1 0.587697 0.62224 0.303322
801 1 0.602034 0.783144 0.397315
802 1 0.606567 0.740725 0.376702
803 1 0.601653 0.562112 0.267978
804 1 0.596967 0.625192 0.299764
805 1 0.611289 0.771474 0.402799
806 1 0.615819 0.739777 0.374055
807 1 0.611137 0.560623 0.271899
808 1 0.606474 0.621717 0.299106
809 1 0.620444 0.771611 0.387437
810 1 0.625102 0.746212 0.366726
811 1 0.620281 0.56308 0.261493
812 1 0.615603 0.614513 0.303465
813 1 0.629672 0.781974 0.392626
814 1 0.634355 0.750457 0.363265
815 1 0.629706 0.565968 0.260004
816 1 0.625193 0.625312 0.296749
817 1 0.638892 0.788171 0.383051
818 1 0.643721 0.755814 0.362403
819 1 0.639225 0.570325 0.267503
820 1 0.634349 0.627776 0.28774
821 1 0.648502 0.794562 0.378634
822 1 0.653001 0.759196 0.356954
823 1 0.648491 0.573989 0.258492
824 1 0.643835 0.630003 0.293766
825 1 0.657698 0.796998 0.376039
826 1 0.66256 0.757761 0.357223
827 1 0.65797 0.580046 0.259151
828 1 0.653267 0.635183 0.287458
829 1 0.667324 0.799352 0.364919
830 1 0.672088 0.76519 0.345233
831 1 0.667264 0.570128 0.263769
832 1 0.662632 0.632675 0.289563
833 1 0.676677 0.810278 0.344398
834 1 0.681534 0.774064 0.33742
835 1 0.67676 0.574446 0.272091
836 1 0.671962 0.631314 0.294333
837 1 0.686093 0.811152 0.363165
838 1 0.690691 0.768521 0.34777
839 1 0.686347 0.569615 0.274413
840 1 0.681447 0.636782 0.292613
841 1 0.695391 0.814046 0.350859
842 1 0.699963 0.776179 0.329653
843 1 0.695481 0.568279 0.272234
844 1 0.691006 0.632619 0.299071
845 1 0.704804 0.821908 0.329341
846 1 0.709434 0.783509 0.316318
847 1 0.704622 0.584942 0.249151
848 1 0.700151 0.635146 0.286319
849 1 0.714198 0.830318 0.330939
850 1 0.71893 0.791579 0.320203
851 1 0.714012 0.589706 0.252514
852 1 0.709273 0.645664 0.269874
853 1 0.723578 0.8362 0.328277
854 1 0.72822 0.795575 0.298725
855 1 0.723451 0.592527 0.253873
856 1 0.718696 0.654782 0.277012
857 1 0.732963 0.834755 0.298469
858 1 0.737627 0.797463 0.27522
859 1 0.73294 0.587829 0.240059
860 1 0.728369 0.652831 0.263986
861 1 0.74226 0.843903 0.273596
862 1 0.747098 0.80423 0.277857
863 1 0.742425 0.594295 0.238693
864 1 0.737657 0.655233 0.24291
865 1 0.752089 0.843512 0.28624
866 1 0.756764 0.8019 0.277304
867 1 0.752015 0.592217 0.243266
868 1 0.747057 0.657943 0.25184
869 1 0.761196 0.844256 0.290466
870 1 0.765936 0.803468 0.286527
871 1 0.761591 0.594212 0.242871
872 1 0.756758 0.658944 0.254647
873 1 0.770729 0.83565 0.28708
874 1 0.775353 0.791779 0.282825
875 1 0.770678 0.590032 0.251573
876 1 0.766244 0.658363 0.26117
877 1 0.780094 0.836627 0.297372
878 1 0.784895 0.793363 0.298632
879 1 0.78018 0.581517 0.249579
880 1 0.775657 0.64644 0.261565
881 1 0.789637 0.831925 0.295245
882 1 0.794296 0.792037 0.274891
883 1 0.789652 0.582533 0.24318
884 1 0.78484 0.644263 0.262158
885 1 0.799011 0.832402 0.286036
886 1 0.803661 0.792527 0.281962
887 1 0.799062 0.583174 0.24129
888 1 0.79429 0.652532 0.249494
889 1 0.808303 0.837764 0.283382
890 1 0.813002 0.803132 0.276732
891 1 0.808489 0.591197 0.241027
892 1 0.803662 0.651317 0.25586
893 1 0.817781 0.853079 0.28029
894 1 0.822431 0.806589 0.285365
895 1 0.817678 0.59998 0.244818
896 1 0.812873 0.658627 0.254537
897 1 0.827061 0.84826 0.288589
898 1 0.831722 0.808935 0.281739
899 1 0.827235 0.606271 0.244537
900 1 0.822409 0.66881 0.251524
901 1 0.836456 0.849706 0.288962
902 1 0.841354 0.810438 0.276893
903 1 0.836415 0.600977 0.253181
904 1 0.831935 0.671143 0.265174
905 1 0.845898 0.852587 0.27921
906 1 0.850674 0.811773 0.271763
907 1 0.845993 0.605841 0.246022
908 1 0.841142 0.670814 0.253675
909 1 0.855464 0.851177 0.271212
910 1 0.860136 0.81841 0.254158
911 1 0.855297 0.598783 0.242362
912 1 0.85081 0.670479 0.254175