ITEM: TIMESTEP
60000
ITEM: NUMBER OF ATOMS
976
ITEM: BOX BOUNDS ss ss ss
-0.0238218 282.673
-1.65141 9.31414
-2.52973 8.65529
ITEM: ATOMS id type xs ys zs
1 1 0.00447891 0.410056 0.226281
2 1 0.00879039 0.344025 0.226352
3 1 0.00443113 0.151817 0.226326
4 1 9.94101e-05 0.214372 0.22629
5 1 0.00445732 0.797854 0.226295
6 1 0.00877718 0.733685 0.226307
7 1 0.00440002 0.539051 0.226308
8 1 0.000100156 0.603578 0.226296
9 1 0.013734 0.406482 0.229812
10 1 0.0185645 0.346973 0.235368
11 1 0.0140345 0.168261 0.233969
12 1 0.00921013 0.201869 0.228191
13 1 0.0231502 0.41303 0.248158
14 1 0.0279206 0.348912 0.245889
15 1 0.0235034 0.170901 0.245485
16 1 0.0187567 0.211344 0.238699
17 1 0.0327259 0.411502 0.242469
18 1 0.0374594 0.354217 0.256916
19 1 0.0328998 0.177994 0.257599
20 1 0.0280219 0.213619 0.25377
21 1 0.0423832 0.416483 0.253505
22 1 0.0469766 0.358934 0.270577
23 1 0.0424009 0.182443 0.281007
24 1 0.037588 0.218391 0.267884
25 1 0.0515066 0.422324 0.262806
26 1 0.0561422 0.355356 0.269027
27 1 0.0516759 0.185726 0.297719
28 1 0.0469874 0.222664 0.287344
29 1 0.0608584 0.421314 0.258701
30 1 0.0654697 0.35985 0.276796
31 1 0.061061 0.192917 0.308977
32 1 0.0564873 0.223706 0.298831
33 1 0.0703727 0.42444 0.263494
34 1 0.0750084 0.368119 0.281126
35 1 0.0705242 0.196677 0.312059
36 1 0.0657538 0.228755 0.307268
37 1 0.0798279 0.432819 0.26554
38 1 0.0844404 0.371953 0.278657
39 1 0.0797127 0.192063 0.305966
40 1 0.0751915 0.235504 0.296782
41 1 0.0890162 0.433926 0.25571
42 1 0.0938414 0.365325 0.265726
43 1 0.0891733 0.195581 0.307917
44 1 0.0844461 0.237095 0.302934
45 1 0.0985069 0.426276 0.244345
46 1 0.103293 0.369973 0.255708
47 1 0.0986458 0.198855 0.306963
48 1 0.0938115 0.230538 0.299952
49 1 0.107986 0.429549 0.246909
50 1 0.112716 0.37469 0.263302
51 1 0.107825 0.204097 0.309978
52 1 0.10321 0.238096 0.296652
53 1 0.117448 0.435833 0.250572
54 1 0.121918 0.368348 0.265143
55 1 0.11719 0.204894 0.310388
56 1 0.112605 0.244534 0.302989
57 1 0.126639 0.433008 0.24983
58 1 0.131166 0.368746 0.258796
59 1 0.126567 0.19742 0.312998
60 1 0.121924 0.241324 0.299
61 1 0.136014 0.427958 0.244619
62 1 0.14074 0.367022 0.263299
63 1 0.136144 0.196585 0.299606
64 1 0.131411 0.23405 0.295309
65 1 0.145398 0.427173 0.25174
66 1 0.150141 0.361712 0.269447
67 1 0.145572 0.189367 0.297895
68 1 0.140959 0.233717 0.288818
69 1 0.15491 0.421919 0.253296
70 1 0.159664 0.360859 0.269925
71 1 0.154754 0.186997 0.309971
72 1 0.15022 0.225941 0.300987
73 1 0.164285 0.422761 0.256149
74 1 0.169109 0.363745 0.276457
75 1 0.164304 0.191046 0.301797
76 1 0.159581 0.225778 0.297981
77 1 0.173872 0.422244 0.25575
78 1 0.178516 0.35065 0.269098
79 1 0.173739 0.183144 0.303953
80 1 0.169048 0.230833 0.297902
81 1 0.183136 0.41423 0.245749
82 1 0.188072 0.355075 0.2568
83 1 0.183204 0.182877 0.298149
84 1 0.178587 0.222675 0.292321
85 1 0.192661 0.420805 0.236617
86 1 0.197342 0.362197 0.2546
87 1 0.192755 0.19152 0.298411
88 1 0.188029 0.22321 0.281349
89 1 0.201999 0.418641 0.223664
90 1 0.20658 0.35702 0.233657
91 1 0.202084 0.193207 0.297878
92 1 0.197377 0.230591 0.288184
93 1 0.211338 0.422507 0.219562
94 1 0.215936 0.365259 0.244361
95 1 0.21147 0.201609 0.30454
96 1 0.206793 0.235795 0.282329
97 1 0.220617 0.429033 0.216731
98 1 0.225483 0.365058 0.239637
99 1 0.220613 0.19497 0.299489
100 1 0.216075 0.236331 0.289394
101 1 0.23023 0.419761 0.213534
102 1 0.234795 0.358023 0.231087
103 1 0.230148 0.19144 0.292137
104 1 0.225468 0.233452 0.283655
105 1 0.239504 0.416505 0.216238
106 1 0.244358 0.350932 0.227121
107 1 0.239481 0.188278 0.286322
108 1 0.234799 0.224269 0.27257
109 1 0.249065 0.414189 0.214194
110 1 0.253775 0.349217 0.231091
111 1 0.248799 0.186238 0.2845
112 1 0.244177 0.221852 0.268982
113 1 0.258518 0.413465 0.211325
114 1 0.262914 0.351091 0.231015
115 1 0.258213 0.186954 0.279816
116 1 0.253444 0.224574 0.270254
117 1 0.267742 0.405833 0.219031
118 1 0.27264 0.345462 0.242661
119 1 0.267637 0.181044 0.290851
120 1 0.262989 0.224054 0.273812
121 1 0.277319 0.40505 0.216654
122 1 0.281805 0.342321 0.237761
123 1 0.277175 0.17613 0.292092
124 1 0.272468 0.214382 0.278247
125 1 0.286514 0.395152 0.212681
126 1 0.291344 0.33717 0.23655
127 1 0.28649 0.177422 0.318672
128 1 0.28197 0.217453 0.288042
129 1 0.296094 0.399619 0.211087
130 1 0.30095 0.336651 0.235695
131 1 0.296069 0.178415 0.314135
132 1 0.291309 0.214731 0.302772
133 1 0.305618 0.400887 0.211265
134 1 0.310464 0.346878 0.242452
135 1 0.305449 0.187466 0.317246
136 1 0.300701 0.216878 0.293451
137 1 0.314986 0.408038 0.211303
138 1 0.319616 0.357284 0.245996
139 1 0.315145 0.193817 0.318828
140 1 0.310277 0.225354 0.303857
141 1 0.324319 0.414173 0.216105
142 1 0.328949 0.363363 0.250764
143 1 0.324464 0.208633 0.333578
144 1 0.31976 0.238607 0.308129
145 1 0.333485 0.427314 0.238297
146 1 0.338321 0.373713 0.265959
147 1 0.333823 0.214525 0.334491
148 1 0.329113 0.24538 0.311186
149 1 0.343054 0.428002 0.237527
150 1 0.347799 0.376758 0.278777
151 1 0.343424 0.22088 0.35662
152 1 0.338666 0.251417 0.329454
153 1 0.35255 0.436627 0.245501
154 1 0.357146 0.379473 0.275502
155 1 0.352873 0.224981 0.351181
156 1 0.34817 0.258225 0.3398
157 1 0.36186 0.434805 0.246585
158 1 0.366462 0.375934 0.28158
159 1 0.361874 0.222925 0.363413
160 1 0.357442 0.262462 0.340362
161 1 0.371271 0.431664 0.238661
162 1 0.375915 0.377219 0.27463
163 1 0.371082 0.231931 0.375989
164 1 0.36646 0.259886 0.349728
165 1 0.380784 0.436284 0.248029
166 1 0.385317 0.384169 0.283826
167 1 0.380383 0.235516 0.378165
168 1 0.375701 0.265347 0.353136
169 1 0.390068 0.434237 0.255096
170 1 0.394815 0.381385 0.295122
171 1 0.38986 0.237296 0.37782
172 1 0.385217 0.266481 0.352419
173 1 0.399534 0.43048 0.257427
174 1 0.403964 0.373309 0.295089
175 1 0.39908 0.228716 0.387538
176 1 0.394627 0.268189 0.365109
177 1 0.408997 0.414983 0.256399
178 1 0.413521 0.358589 0.29549
179 1 0.408465 0.217478 0.389601
180 1 0.403918 0.259 0.366327
181 1 0.418232 0.402258 0.26556
182 1 0.422581 0.344505 0.306692
183 1 0.417638 0.202447 0.400755
184 1 0.413162 0.244615 0.369876
185 1 0.427435 0.393817 0.281437
186 1 0.431808 0.339882 0.321714
187 1 0.426856 0.193758 0.397388
188 1 0.422336 0.232508 0.377784
189 1 0.436725 0.382535 0.288486
190 1 0.441284 0.318692 0.325349
191 1 0.43622 0.177033 0.407543
192 1 0.431825 0.221891 0.388915
193 1 0.446145 0.366722 0.30611
194 1 0.450605 0.309205 0.340374
195 1 0.445549 0.158466 0.415733
196 1 0.441139 0.197415 0.388544
197 1 0.455345 0.357044 0.314276
198 1 0.459862 0.30297 0.35984
199 1 0.455073 0.151907 0.431054
200 1 0.450364 0.190546 0.404702
201 1 0.464471 0.363197 0.346694
202 1 0.468916 0.310388 0.397025
203 1 0.464293 0.155833 0.459757
204 1 0.459719 0.187889 0.423229
205 1 0.473589 0.363742 0.398884
206 1 0.477631 0.327849 0.47838
207 1 0.473208 0.173872 0.501262
208 1 0.468965 0.19653 0.449472
209 1 0.482224 0.381394 0.495981
210 1 0.485547 0.354964 0.591308
211 1 0.480555 0.211023 0.626278
212 1 0.477131 0.216782 0.545207
213 1 0.490231 0.400424 0.598146
214 1 0.493082 0.396329 0.702795
215 1 0.487494 0.279871 0.775121
216 1 0.484483 0.265628 0.680335
217 1 0.497613 0.461772 0.71846
218 1 0.499303 0.513866 0.828063
219 1 0.493738 0.394035 0.908964
220 1 0.491401 0.341668 0.816636
221 1 0.502748 0.619245 0.82971
222 1 0.50178 0.740021 0.894756
223 1 0.496758 0.611725 0.992672
224 1 0.496667 0.492662 0.940155
225 1 0.503198 0.849412 0.826012
226 1 0.499269 0.919936 0.764631
227 1 0.494928 0.830521 0.921044
228 1 0.497548 0.737178 0.968721
229 1 0.499795 0.955875 0.635925
230 1 0.495961 0.928793 0.541524
231 1 0.491395 0.901553 0.713222
232 1 0.494374 0.904746 0.817349
233 1 0.496805 0.899006 0.419049
234 1 0.493134 0.839652 0.335523
235 1 0.488457 0.869364 0.493592
236 1 0.49119 0.904055 0.589379
237 1 0.494226 0.794146 0.209875
238 1 0.49042 0.733707 0.136963
239 1 0.485312 0.797399 0.285213
240 1 0.488283 0.837386 0.374834
241 1 0.491259 0.634612 0.0470238
242 1 0.487597 0.549682 0.00895993
243 1 0.482666 0.678912 0.08903
244 1 0.485154 0.746274 0.169429
245 1 0.488571 0.410805 0.0176243
246 1 0.484748 0.32189 0.0611223
247 1 0.479947 0.476243 -0.00448923
248 1 0.48257 0.578828 0.00833639
249 1 0.485489 0.228771 0.151344
250 1 0.481564 0.172026 0.22395
251 1 0.47667 0.276627 0.100727
252 1 0.479783 0.356856 0.0381466
253 1 0.482139 0.107214 0.340328
254 1 0.478136 0.0498071 0.414261
255 1 0.473552 0.116544 0.256469
256 1 0.476655 0.188939 0.18879
257 1 0.478553 0.0262018 0.54479
258 1 0.474365 0.040388 0.632665
259 1 0.469948 0.00777579 0.458967
260 1 0.473011 0.0420236 0.363516
261 1 0.475396 0.126852 0.734571
262 1 0.473731 0.260235 0.719321
263 1 0.46768 0.155622 0.629958
264 1 0.469113 0.0369051 0.581748
265 1 0.477047 0.359815 0.734611
266 1 0.477451 0.461311 0.646067
267 1 0.47038 0.386274 0.578405
268 1 0.469213 0.276927 0.643389
269 1 0.481944 0.531532 0.627876
270 1 0.484194 0.576598 0.515667
271 1 0.476538 0.550748 0.461991
272 1 0.474061 0.477978 0.552129
273 1 0.489131 0.607675 0.501326
274 1 0.492226 0.618102 0.388307
275 1 0.484841 0.606203 0.318713
276 1 0.481001 0.59889 0.414251
277 1 0.497518 0.623945 0.370607
278 1 0.50133 0.600897 0.282313
279 1 0.494212 0.570416 0.207997
280 1 0.489791 0.602733 0.276861
281 1 0.506401 0.608686 0.290608
282 1 0.510573 0.546882 0.231024
283 1 0.504174 0.450256 0.191452
284 1 0.499243 0.52617 0.189742
285 1 0.515853 0.57247 0.24317
286 1 0.5201 0.50563 0.193003
287 1 0.513849 0.382255 0.119774
288 1 0.509442 0.434566 0.1613
289 1 0.525172 0.540276 0.225502
290 1 0.529645 0.479661 0.18295
291 1 0.524016 0.352582 0.089483
292 1 0.519175 0.393121 0.119094
293 1 0.53452 0.524834 0.210013
294 1 0.539121 0.465519 0.159454
295 1 0.533436 0.338359 0.0697585
296 1 0.52886 0.378042 0.102373
297 1 0.544117 0.509188 0.188992
298 1 0.548583 0.445635 0.144034
299 1 0.543156 0.31843 0.0493574
300 1 0.53837 0.35726 0.0788594
301 1 0.553495 0.495926 0.174618
302 1 0.558176 0.437323 0.137299
303 1 0.553009 0.298701 0.0381084
304 1 0.547974 0.336543 0.0613849
305 1 0.562844 0.487611 0.174653
306 1 0.567432 0.424353 0.141213
307 1 0.562213 0.291587 0.028952
308 1 0.557625 0.32676 0.0576217
309 1 0.572154 0.470198 0.180976
310 1 0.576758 0.413216 0.138377
311 1 0.571688 0.288133 0.023276
312 1 0.566993 0.322386 0.0525784
313 1 0.581604 0.459172 0.166979
314 1 0.586356 0.411527 0.130792
315 1 0.58126 0.267455 0.0273092
316 1 0.576518 0.306582 0.0508221
317 1 0.591221 0.456975 0.158942
318 1 0.595681 0.399307 0.133261
319 1 0.590861 0.260059 0.0347524
320 1 0.586027 0.296043 0.049362
321 1 0.600535 0.454563 0.165521
322 1 0.605343 0.396217 0.133264
323 1 0.600396 0.247436 0.0553933
324 1 0.595677 0.284421 0.0718842
325 1 0.610016 0.441883 0.175207
326 1 0.61479 0.384431 0.146127
327 1 0.609782 0.243314 0.0423442
328 1 0.605028 0.282606 0.0645875
329 1 0.619491 0.439516 0.175538
330 1 0.624358 0.380464 0.143055
331 1 0.619352 0.240087 0.0458311
332 1 0.614592 0.269384 0.0700197
333 1 0.629047 0.428488 0.175022
334 1 0.633676 0.372444 0.142996
335 1 0.628917 0.234471 0.0371882
336 1 0.624104 0.267448 0.065058
337 1 0.63826 0.421515 0.181964
338 1 0.643081 0.375305 0.136048
339 1 0.638197 0.234106 0.0290776
340 1 0.633685 0.267168 0.0588971
341 1 0.647751 0.42908 0.168017
342 1 0.6524 0.371944 0.132455
343 1 0.647783 0.225185 0.0351592
344 1 0.643061 0.264513 0.0520134
345 1 0.657234 0.42647 0.16678
346 1 0.661944 0.373654 0.133547
347 1 0.657092 0.235356 0.0316893
348 1 0.652348 0.260754 0.0556547
349 1 0.666735 0.424779 0.166354
350 1 0.671554 0.372552 0.141938
351 1 0.66653 0.221785 0.0499471
352 1 0.661683 0.264411 0.0578088
353 1 0.676248 0.424056 0.170179
354 1 0.680945 0.362173 0.145343
355 1 0.675787 0.223337 0.0562017
356 1 0.671174 0.257314 0.0764079
357 1 0.685469 0.417576 0.178708
358 1 0.690177 0.362248 0.1531
359 1 0.685368 0.21315 0.0635588
360 1 0.680618 0.247459 0.0785464
361 1 0.694635 0.420632 0.186952
362 1 0.699347 0.360328 0.156316
363 1 0.694842 0.201672 0.0782492
364 1 0.69011 0.240169 0.0854204
365 1 0.703984 0.418564 0.179979
366 1 0.708777 0.363155 0.14986
367 1 0.704 0.202151 0.0730686
368 1 0.699343 0.240037 0.0954843
369 1 0.713551 0.417217 0.175808
370 1 0.718266 0.355427 0.152823
371 1 0.71334 0.204389 0.0699319
372 1 0.708783 0.243397 0.0873906
373 1 0.722985 0.408634 0.179941
374 1 0.727567 0.343274 0.157396
375 1 0.722763 0.187043 0.083633
376 1 0.718201 0.229329 0.0932268
377 1 0.732532 0.4037 0.179598
378 1 0.737294 0.340307 0.16011
379 1 0.732218 0.169883 0.108498
380 1 0.727662 0.216668 0.107821
381 1 0.741824 0.39825 0.17995
382 1 0.746485 0.330362 0.173706
383 1 0.741731 0.167593 0.111066
384 1 0.73703 0.211669 0.119807
385 1 0.751068 0.395874 0.196475
386 1 0.755839 0.339277 0.176838
387 1 0.751108 0.16523 0.11871
388 1 0.746333 0.203333 0.13388
389 1 0.760549 0.397774 0.193656
390 1 0.765254 0.338661 0.180472
391 1 0.760441 0.176011 0.116327
392 1 0.755867 0.210079 0.134282
393 1 0.770212 0.403866 0.193148
394 1 0.774742 0.343041 0.171681
395 1 0.770096 0.170262 0.129654
396 1 0.765311 0.209624 0.138531
397 1 0.779446 0.40575 0.195001
398 1 0.784174 0.34199 0.174518
399 1 0.779602 0.166729 0.136218
400 1 0.774941 0.209849 0.141806
401 1 0.788878 0.407015 0.188505
402 1 0.79374 0.3461 0.171145
403 1 0.789003 0.173109 0.135561
404 1 0.784227 0.209903 0.144074
405 1 0.798151 0.411116 0.195669
406 1 0.802817 0.350585 0.18031
407 1 0.798199 0.177342 0.125875
408 1 0.793574 0.21314 0.14022
409 1 0.807544 0.416778 0.191813
410 1 0.812171 0.351736 0.180068
411 1 0.807635 0.187519 0.132687
412 1 0.802823 0.22182 0.137882
413 1 0.816969 0.418436 0.196327
414 1 0.821693 0.355307 0.171399
415 1 0.81691 0.180671 0.140691
416 1 0.812354 0.219986 0.146388
417 1 0.826339 0.423218 0.181569
418 1 0.831146 0.361194 0.163288
419 1 0.826548 0.182533 0.131444
420 1 0.821691 0.215604 0.143698
421 1 0.835767 0.42071 0.175844
422 1 0.840588 0.356686 0.166143
423 1 0.835916 0.190942 0.127534
424 1 0.831218 0.227145 0.140305
425 1 0.845193 0.423851 0.184175
426 1 0.849826 0.36472 0.178177
427 1 0.845436 0.195288 0.125586
428 1 0.840626 0.227995 0.133274
429 1 0.854397 0.42807 0.194239
430 1 0.859428 0.364734 0.179613
431 1 0.854647 0.188356 0.143059
432 1 0.849955 0.233685 0.145615
433 1 0.864273 0.423054 0.184673
434 1 0.868627 0.353222 0.17476
435 1 0.864036 0.182058 0.144408
436 1 0.859388 0.228132 0.1502
437 1 0.87349 0.417906 0.186713
438 1 0.878227 0.354393 0.179675
439 1 0.873464 0.17876 0.14749
440 1 0.868708 0.220868 0.149628
441 1 0.882849 0.419789 0.192577
442 1 0.887573 0.354098 0.191145
443 1 0.883045 0.179636 0.168236
444 1 0.878224 0.21716 0.164043
445 1 0.892295 0.41613 0.203518
446 1 0.896843 0.349836 0.204062
447 1 0.892267 0.172948 0.169377
448 1 0.887665 0.217976 0.174188
449 1 0.901512 0.413006 0.209525
450 1 0.906289 0.351806 0.206386
451 1 0.901573 0.17793 0.185451
452 1 0.896767 0.215294 0.188416
453 1 0.9111 0.415549 0.218515
454 1 0.915543 0.353901 0.203675
455 1 0.910961 0.177654 0.177456
456 1 0.906266 0.217027 0.181289
457 1 0.920176 0.41899 0.208776
458 1 0.92492 0.359038 0.197138
459 1 0.920436 0.181597 0.177997
460 1 0.915759 0.217338 0.18146
461 1 0.929673 0.417091 0.208362
462 1 0.934358 0.357804 0.199194
463 1 0.929794 0.184261 0.173642
464 1 0.925162 0.223012 0.176066
465 1 0.939055 0.421656 0.20488
466 1 0.943849 0.357964 0.207513
467 1 0.938847 0.186206 0.185174
468 1 0.934297 0.225799 0.180936
469 1 0.948601 0.426177 0.209139
470 1 0.953054 0.359982 0.209159
471 1 0.948353 0.185415 0.201207
472 1 0.943838 0.225188 0.197137
473 1 0.95798 0.419766 0.219409
474 1 0.962718 0.354655 0.234964
475 1 0.957484 0.18431 0.212517
476 1 0.952961 0.225891 0.203226
477 1 0.967469 0.4224 0.238784
478 1 0.972148 0.360514 0.239617
479 1 0.967401 0.186413 0.224481
480 1 0.962311 0.216883 0.224539
481 1 0.976839 0.418942 0.241408
482 1 0.981489 0.356241 0.235365
483 1 0.976778 0.18423 0.237858
484 1 0.972116 0.225534 0.229231
485 1 0.986299 0.414656 0.23126
486 1 0.990995 0.349261 0.227629
487 1 0.986292 0.181006 0.229087
488 1 0.981487 0.220771 0.23328
489 1 0.0134842 0.774728 0.2268
490 1 0.0182105 0.739996 0.228582
491 1 0.0136861 0.539724 0.229119
492 1 0.00897116 0.601234 0.227096
493 1 0.0229908 0.782811 0.232
494 1 0.0277051 0.743544 0.236902
495 1 0.0230967 0.544578 0.244023
496 1 0.0183434 0.60516 0.230945
497 1 0.032498 0.781963 0.22794
498 1 0.0371492 0.744413 0.217876
499 1 0.0325992 0.547498 0.236717
500 1 0.0277826 0.609815 0.243843
501 1 0.0418492 0.784192 0.213108
502 1 0.0464687 0.74258 0.215041
503 1 0.0419698 0.547077 0.236391
504 1 0.0373394 0.605648 0.229513
505 1 0.0510326 0.79016 0.204488
506 1 0.0556849 0.753454 0.213132
507 1 0.0514355 0.54924 0.239944
508 1 0.0467459 0.608422 0.232877
509 1 0.0605283 0.788739 0.189449
510 1 0.0652459 0.744495 0.177631
511 1 0.0606193 0.55184 0.226632
512 1 0.0561336 0.615714 0.227343
513 1 0.0699309 0.787491 0.169001
514 1 0.074601 0.750897 0.183605
515 1 0.0700376 0.552947 0.224516
516 1 0.0652426 0.612865 0.20523
517 1 0.0792864 0.79376 0.16924
518 1 0.0840147 0.759214 0.183789
519 1 0.0796061 0.563137 0.227729
520 1 0.0748495 0.618426 0.21333
521 1 0.0887133 0.797783 0.167662
522 1 0.0934606 0.751516 0.178781
523 1 0.0887764 0.562391 0.236023
524 1 0.0843234 0.626163 0.221521
525 1 0.098032 0.788209 0.168566
526 1 0.102926 0.751942 0.17322
527 1 0.0981077 0.559259 0.21734
528 1 0.0933415 0.618683 0.212016
529 1 0.107666 0.794402 0.169558
530 1 0.112284 0.752864 0.180903
531 1 0.107734 0.563486 0.213036
532 1 0.102977 0.623097 0.202713
533 1 0.117157 0.787077 0.160667
534 1 0.121972 0.74948 0.161022
535 1 0.117184 0.560303 0.216828
536 1 0.112576 0.622237 0.204454
537 1 0.126727 0.784612 0.143625
538 1 0.131563 0.748714 0.157916
539 1 0.126532 0.559947 0.223621
540 1 0.121791 0.623121 0.200807
541 1 0.13618 0.781554 0.142924
542 1 0.140819 0.74688 0.158628
543 1 0.136082 0.555727 0.212209
544 1 0.131335 0.618505 0.201601
545 1 0.145766 0.787564 0.15049
546 1 0.150491 0.746631 0.156454
547 1 0.145553 0.554369 0.211233
548 1 0.140951 0.614261 0.192868
549 1 0.155164 0.779497 0.141984
550 1 0.159901 0.736073 0.159184
551 1 0.154977 0.549539 0.209083
552 1 0.150346 0.611334 0.188867
553 1 0.164532 0.77518 0.149556
554 1 0.169088 0.738277 0.162507
555 1 0.16448 0.54818 0.220242
556 1 0.159807 0.606447 0.198964
557 1 0.173926 0.776255 0.152984
558 1 0.178449 0.739525 0.171052
559 1 0.173898 0.549907 0.220399
560 1 0.169298 0.606756 0.199944
561 1 0.183034 0.783385 0.155626
562 1 0.187897 0.741943 0.156079
563 1 0.183077 0.543472 0.212101
564 1 0.178497 0.605988 0.204234
565 1 0.192441 0.783915 0.124381
566 1 0.196969 0.74178 0.124828
567 1 0.192414 0.548437 0.199708
568 1 0.187653 0.608837 0.195672
569 1 0.201743 0.777962 0.112396
570 1 0.206559 0.744006 0.125536
571 1 0.202016 0.548566 0.18595
572 1 0.197021 0.612614 0.168256
573 1 0.211307 0.782941 0.111269
574 1 0.215981 0.745347 0.125131
575 1 0.211341 0.55368 0.185415
576 1 0.206703 0.616497 0.169467
577 1 0.22073 0.781604 0.105708
578 1 0.225341 0.745035 0.10897
579 1 0.220719 0.550895 0.177612
580 1 0.216033 0.612807 0.167727
581 1 0.23026 0.776494 0.095241
582 1 0.234889 0.73058 0.108879
583 1 0.230098 0.548178 0.171736
584 1 0.225359 0.610509 0.151267
585 1 0.239534 0.771986 0.106302
586 1 0.244333 0.729946 0.123095
587 1 0.239609 0.539757 0.171483
588 1 0.234867 0.601943 0.147625
589 1 0.248948 0.771619 0.120265
590 1 0.253602 0.731398 0.128787
591 1 0.248968 0.54039 0.178421
592 1 0.244372 0.599363 0.158317
593 1 0.258525 0.767225 0.122508
594 1 0.263204 0.729209 0.125419
595 1 0.258435 0.539925 0.168296
596 1 0.253795 0.600363 0.160648
597 1 0.26793 0.763741 0.105819
598 1 0.272752 0.725729 0.10996
599 1 0.267838 0.536689 0.182183
600 1 0.263193 0.597451 0.161014
601 1 0.277377 0.760853 0.0942518
602 1 0.281966 0.717352 0.100553
603 1 0.27725 0.53073 0.17656
604 1 0.272661 0.593192 0.155364
605 1 0.28672 0.753387 0.0868851
606 1 0.291465 0.710221 0.100876
607 1 0.286773 0.524389 0.17013
608 1 0.281796 0.587787 0.149174
609 1 0.296028 0.748316 0.0786155
610 1 0.300757 0.713105 0.095887
611 1 0.295936 0.523594 0.170472
612 1 0.291466 0.586008 0.14966
613 1 0.305485 0.751504 0.0800672
614 1 0.310218 0.708978 0.0879423
615 1 0.30563 0.52233 0.15913
616 1 0.300748 0.581586 0.141833
617 1 0.3148 0.748435 0.0687039
618 1 0.319723 0.720054 0.0861279
619 1 0.314957 0.528035 0.159814
620 1 0.310087 0.581151 0.135254
621 1 0.324601 0.753302 0.0662136
622 1 0.329272 0.714617 0.0824625
623 1 0.324501 0.537304 0.162134
624 1 0.319528 0.588354 0.133371
625 1 0.333987 0.751835 0.0717582
626 1 0.33863 0.711891 0.0865947
627 1 0.333797 0.539259 0.168341
628 1 0.329124 0.595139 0.13855
629 1 0.343363 0.746203 0.0639603
630 1 0.348191 0.716639 0.0809764
631 1 0.343374 0.545338 0.177357
632 1 0.338536 0.591657 0.144373
633 1 0.352779 0.753294 0.0604654
634 1 0.357571 0.716788 0.0758288
635 1 0.352661 0.547428 0.178619
636 1 0.348189 0.601132 0.147394
637 1 0.36218 0.748574 0.0536527
638 1 0.366883 0.716398 0.0811274
639 1 0.361969 0.551262 0.18207
640 1 0.35745 0.602544 0.147139
641 1 0.371561 0.746616 0.052746
642 1 0.376407 0.713909 0.0677551
643 1 0.371298 0.543892 0.180918
644 1 0.36663 0.601758 0.151796
645 1 0.381231 0.737313 0.0444156
646 1 0.385954 0.707482 0.069364
647 1 0.38092 0.550177 0.177667
648 1 0.376282 0.599491 0.146
649 1 0.390677 0.733543 0.0448585
650 1 0.395351 0.694881 0.0659854
651 1 0.390434 0.54336 0.182101
652 1 0.385653 0.600246 0.144493
653 1 0.400164 0.723455 0.0447479
654 1 0.404724 0.697078 0.0718636
655 1 0.399822 0.538883 0.178421
656 1 0.395108 0.592168 0.14446
657 1 0.409559 0.720737 0.0585223
658 1 0.41432 0.683115 0.0758465
659 1 0.409306 0.520181 0.181878
660 1 0.404539 0.585966 0.146489
661 1 0.419194 0.710576 0.055869
662 1 0.42388 0.668209 0.081315
663 1 0.418599 0.512238 0.187597
664 1 0.414139 0.569485 0.147902
665 1 0.428633 0.692418 0.0605385
666 1 0.43323 0.656045 0.0925992
667 1 0.427991 0.50082 0.209634
668 1 0.423561 0.557522 0.161797
669 1 0.438318 0.691467 0.0845239
670 1 0.442903 0.650362 0.116993
671 1 0.437407 0.488795 0.213316
672 1 0.432811 0.547672 0.170338
673 1 0.447842 0.674956 0.086595
674 1 0.452416 0.625778 0.112037
675 1 0.446737 0.47796 0.232024
676 1 0.44238 0.537031 0.190208
677 1 0.457267 0.65076 0.0944837
678 1 0.462194 0.612099 0.123403
679 1 0.455982 0.464411 0.245234
680 1 0.451623 0.523015 0.199291
681 1 0.467305 0.6136 0.105403
682 1 0.471885 0.575359 0.149243
683 1 0.465358 0.461888 0.262754
684 1 0.461039 0.512759 0.214497
685 1 0.477043 0.56706 0.143966
686 1 0.481607 0.505195 0.182047
687 1 0.474599 0.449396 0.309499
688 1 0.470722 0.494032 0.245645
689 1 0.486503 0.451702 0.193396
690 1 0.490731 0.407418 0.262419
691 1 0.483812 0.42477 0.384317
692 1 0.479734 0.455829 0.29504
693 1 0.49595 0.400754 0.30404
694 1 0.499884 0.440847 0.383366
695 1 0.492275 0.430113 0.487267
696 1 0.488961 0.428785 0.381395
697 1 0.504671 0.47916 0.426456
698 1 0.507878 0.532939 0.51732
699 1 0.499974 0.487204 0.6054
700 1 0.497361 0.461174 0.496139
701 1 0.511573 0.620589 0.554591
702 1 0.513169 0.711812 0.6419
703 1 0.505756 0.619233 0.724349
704 1 0.504476 0.545331 0.621031
705 1 0.515313 0.831721 0.642591
706 1 0.513855 0.953911 0.617068
707 1 0.507749 0.849533 0.759629
708 1 0.509291 0.72299 0.723308
709 1 0.513386 1.00115 0.501807
710 1 0.510302 0.982387 0.403396
711 1 0.504615 0.976301 0.582969
712 1 0.508635 0.947622 0.672153
713 1 0.510363 0.912803 0.29861
714 1 0.507835 0.828253 0.227729
715 1 0.501547 0.910752 0.363341
716 1 0.505224 0.968576 0.443369
717 1 0.507715 0.736602 0.140001
718 1 0.504929 0.657734 0.0634394
719 1 0.498945 0.780413 0.175533
720 1 0.502655 0.837472 0.251907
721 1 0.504927 0.535688 0.0185149
722 1 0.502159 0.428192 0.0111252
723 1 0.496284 0.604608 0.0313899
724 1 0.499833 0.690065 0.0764504
725 1 0.501894 0.312427 0.0713283
726 1 0.498922 0.254077 0.158321
727 1 0.4934 0.382903 0.053768
728 1 0.497068 0.472614 0.0179669
729 1 0.499094 0.195176 0.269066
730 1 0.495871 0.141532 0.35119
731 1 0.490379 0.212159 0.193861
732 1 0.494079 0.279295 0.130364
733 1 0.495604 0.114169 0.473538
734 1 0.49238 0.0773583 0.56047
735 1 0.486871 0.098408 0.386403
736 1 0.490933 0.140153 0.310544
737 1 0.492114 0.0649449 0.682029
738 1 0.48874 0.0691041 0.77396
739 1 0.483463 0.0360893 0.594014
740 1 0.487423 0.0612129 0.511216
741 1 0.488601 0.128168 0.888598
742 1 0.486156 0.22198 0.951705
743 1 0.480054 0.120638 0.792465
744 1 0.484013 0.0639771 0.720173
745 1 0.487261 0.341337 0.985156
746 1 0.48674 0.468024 0.946714
747 1 0.480409 0.350656 0.823527
748 1 0.481345 0.224905 0.877355
749 1 0.489728 0.562846 0.924512
750 1 0.491743 0.627146 0.834286
751 1 0.484862 0.52729 0.729075
752 1 0.483656 0.455552 0.83966
753 1 0.495434 0.692049 0.792682
754 1 0.498189 0.720614 0.698768
755 1 0.49166 0.624567 0.607482
756 1 0.489413 0.599677 0.720845
757 1 0.502234 0.773314 0.65391
758 1 0.505479 0.779723 0.565444
759 1 0.499288 0.658522 0.485839
760 1 0.496466 0.667239 0.586692
761 1 0.509537 0.830615 0.524174
762 1 0.513607 0.814405 0.461147
763 1 0.507784 0.67898 0.387301
764 1 0.504224 0.699321 0.473733
765 1 0.518204 0.846318 0.467329
766 1 0.522634 0.807633 0.426169
767 1 0.51688 0.666157 0.32488
768 1 0.512813 0.716434 0.385029
769 1 0.527345 0.831463 0.448923
770 1 0.53163 0.791678 0.426146
771 1 0.52601 0.64266 0.301041
772 1 0.521815 0.699311 0.348896
773 1 0.536346 0.811043 0.440199
774 1 0.540765 0.766557 0.404004
775 1 0.535171 0.624805 0.297305
776 1 0.530893 0.687122 0.33696
777 1 0.545267 0.800286 0.415217
778 1 0.549552 0.76604 0.38189
779 1 0.544522 0.609631 0.272843
780 1 0.540017 0.662633 0.326711
781 1 0.554471 0.796447 0.384334
782 1 0.558858 0.762294 0.354057
783 1 0.553879 0.598296 0.253468
784 1 0.549187 0.655923 0.298736
785 1 0.563419 0.799304 0.367025
786 1 0.568075 0.764567 0.341595
787 1 0.563123 0.592849 0.2461
788 1 0.558649 0.652432 0.284772
789 1 0.572908 0.801653 0.350634
790 1 0.577356 0.754967 0.324072
791 1 0.572566 0.579861 0.245141
792 1 0.567979 0.643495 0.277264
793 1 0.582061 0.78334 0.343299
794 1 0.586813 0.749928 0.311181
795 1 0.581878 0.574516 0.232826
796 1 0.577285 0.633234 0.265469
797 1 0.591603 0.780057 0.334348
798 1 0.596331 0.74176 0.320034
799 1 0.591388 0.568766 0.226218
800 1 0.58669 0.622091 0.260576
801 1 0.601125 0.773873 0.34041
802 1 0.605738 0.736174 0.326841
803 1 0.600692 0.566416 0.231493
804 1 0.596178 0.621995 0.257132
805 1 0.610482 0.768145 0.34475
806 1 0.615178 0.73466 0.325472
807 1 0.61014 0.556223 0.237947
808 1 0.605556 0.621271 0.257793
809 1 0.619946 0.769393 0.328546
810 1 0.624489 0.727751 0.317255
811 1 0.619869 0.553624 0.24055
812 1 0.614935 0.606701 0.267987
813 1 0.629232 0.768603 0.332751
814 1 0.633821 0.723219 0.32756
815 1 0.629152 0.544666 0.243636
816 1 0.624548 0.60497 0.265318
817 1 0.638497 0.758422 0.344876
818 1 0.643285 0.725286 0.32986
819 1 0.638402 0.542946 0.249318
820 1 0.633796 0.59703 0.278331
821 1 0.64798 0.759932 0.354752
822 1 0.652607 0.716927 0.337232
823 1 0.647954 0.546278 0.236167
824 1 0.643147 0.59668 0.270453
825 1 0.65729 0.758366 0.342103
826 1 0.661797 0.720137 0.316823
827 1 0.657176 0.537998 0.236023
828 1 0.65251 0.599558 0.274751
829 1 0.666474 0.756396 0.337578
830 1 0.67127 0.727075 0.311971
831 1 0.666612 0.539994 0.232866
832 1 0.661908 0.598326 0.260202
833 1 0.675902 0.758581 0.324823
834 1 0.680658 0.718245 0.317075
835 1 0.675948 0.54632 0.225488
836 1 0.671167 0.59885 0.257274
837 1 0.685269 0.754054 0.33415
838 1 0.689979 0.719407 0.327597
839 1 0.685381 0.537455 0.23418
840 1 0.680746 0.598763 0.260769
841 1 0.694769 0.754328 0.340263
842 1 0.699504 0.71704 0.321996
843 1 0.694754 0.537407 0.241686
844 1 0.69013 0.596437 0.263511
845 1 0.704291 0.752007 0.335821
846 1 0.708927 0.718469 0.315921
847 1 0.703959 0.535799 0.235276
848 1 0.69936 0.592401 0.265389
849 1 0.7137 0.756931 0.331166
850 1 0.71845 0.718632 0.310513
851 1 0.713605 0.536642 0.233595
852 1 0.708849 0.591162 0.26528
853 1 0.723111 0.758298 0.307683
854 1 0.727797 0.716921 0.291475
855 1 0.722979 0.533194 0.230394
856 1 0.718493 0.594659 0.257969
857 1 0.732346 0.744553 0.314579
858 1 0.737047 0.709447 0.30621
859 1 0.732403 0.521821 0.235055
860 1 0.727849 0.583188 0.249002
861 1 0.741769 0.744445 0.309901
862 1 0.746488 0.711782 0.288089
863 1 0.741966 0.527252 0.227613
864 1 0.737051 0.582332 0.257066
865 1 0.751225 0.752682 0.311222
866 1 0.755887 0.715231 0.299407
867 1 0.751165 0.523435 0.227688
868 1 0.74642 0.587473 0.247388
869 1 0.760587 0.752787 0.320614
870 1 0.765281 0.708248 0.313459
871 1 0.760618 0.522606 0.238761
872 1 0.755867 0.581984 0.25234
873 1 0.769882 0.748254 0.326014
874 1 0.774658 0.717457 0.310052
875 1 0.769894 0.524775 0.243857
876 1 0.765215 0.580312 0.264169
877 1 0.779306 0.759802 0.324664
878 1 0.783875 0.723413 0.305445
879 1 0.779428 0.532417 0.237936
880 1 0.77462 0.586337 0.267082
881 1 0.788506 0.766005 0.310686
882 1 0.79314 0.730933 0.292684
883 1 0.788819 0.53665 0.228816
884 1 0.784084 0.598742 0.254132
885 1 0.797823 0.771699 0.299762
886 1 0.802569 0.736076 0.281605
887 1 0.798045 0.537548 0.232238
888 1 0.793425 0.600445 0.24502
889 1 0.807292 0.77294 0.288658
890 1 0.811983 0.737959 0.275883
891 1 0.80743 0.544235 0.233644
892 1 0.802761 0.601437 0.254492
893 1 0.816691 0.778633 0.277966
894 1 0.821372 0.744467 0.259377
895 1 0.816687 0.547709 0.230551
896 1 0.81197 0.603703 0.246413
897 1 0.826152 0.785849 0.256735
898 1 0.830946 0.748478 0.246663
899 1 0.826116 0.554686 0.208964
900 1 0.821257 0.610947 0.235747
901 1 0.835777 0.795148 0.234547
902 1 0.840315 0.750829 0.241704
903 1 0.835533 0.550552 0.208177
904 1 0.830762 0.611073 0.22114
905 1 0.845038 0.787049 0.254428
906 1 0.84984 0.749747 0.24619
907 1 0.845098 0.555284 0.21277
908 1 0.840441 0.615505 0.219942
909 1 0.854535 0.791581 0.260845
910 1 0.859259 0.750555 0.252186
911 1 0.854342 0.556812 0.214611