ITEM: TIMESTEP
122000
ITEM: NUMBER OF ATOMS
976
ITEM: BOX BOUNDS ss ss ss
-0.0238218 284.396
-1.3425 9.38845
-2.20079 8.82338
ITEM: ATOMS id type xs ys zs
1 1 0.00445179 0.390233 0.199745
2 1 0.00873717 0.322759 0.199816
3 1 0.0044043 0.126349 0.19979
4 1 9.88082e-05 0.190272 0.199754
5 1 0.00443033 0.78651 0.199759
6 1 0.00872404 0.720938 0.19977
7 1 0.00437338 0.522049 0.199772
8 1 9.95499e-05 0.587986 0.199759
9 1 0.0136509 0.386581 0.203327
10 1 0.018452 0.325771 0.208964
11 1 0.0139495 0.143152 0.207544
12 1 0.00915436 0.177495 0.201682
13 1 0.0230818 0.391404 0.206548
14 1 0.027966 0.336458 0.206607
15 1 0.023342 0.146866 0.213502
16 1 0.0186431 0.187177 0.212343
17 1 0.0326978 0.396933 0.201398
18 1 0.0374303 0.332782 0.205177
19 1 0.0327624 0.155509 0.201036
20 1 0.0280139 0.192433 0.205036
21 1 0.0421506 0.398405 0.203091
22 1 0.0467894 0.338408 0.195407
23 1 0.0422231 0.158994 0.193129
24 1 0.0375695 0.194931 0.207072
25 1 0.0514876 0.407489 0.196769
26 1 0.0563102 0.346804 0.191545
27 1 0.0517414 0.163863 0.182328
28 1 0.0469229 0.200815 0.181762
29 1 0.0609579 0.411146 0.186251
30 1 0.0656715 0.350661 0.187967
31 1 0.0610096 0.169541 0.204914
32 1 0.0563741 0.207565 0.18442
33 1 0.0701643 0.41688 0.185585
34 1 0.0748117 0.349787 0.189228
35 1 0.0701335 0.169256 0.195421
36 1 0.0655843 0.212001 0.201234
37 1 0.0795328 0.41434 0.199219
38 1 0.0841661 0.346626 0.199539
39 1 0.0798258 0.164944 0.206574
40 1 0.0748871 0.2086 0.194711
41 1 0.088794 0.413447 0.198937
42 1 0.093605 0.34678 0.201906
43 1 0.0891732 0.167074 0.208376
44 1 0.0844403 0.208666 0.203269
45 1 0.0984675 0.416746 0.205016
46 1 0.103311 0.354598 0.206263
47 1 0.0986683 0.169633 0.211403
48 1 0.0940358 0.207417 0.205632
49 1 0.107761 0.424896 0.207982
50 1 0.112609 0.360148 0.209914
51 1 0.107935 0.172531 0.215316
52 1 0.103265 0.216181 0.216353
53 1 0.117344 0.43435 0.206062
54 1 0.122003 0.368159 0.200976
55 1 0.11736 0.193692 0.204379
56 1 0.112469 0.223168 0.208575
57 1 0.126702 0.437493 0.19963
58 1 0.131456 0.376699 0.213081
59 1 0.126636 0.190835 0.217558
60 1 0.122067 0.232921 0.202478
61 1 0.13596 0.440124 0.214622
62 1 0.140622 0.371126 0.219593
63 1 0.136017 0.191738 0.229357
64 1 0.131446 0.229448 0.22112
65 1 0.145308 0.433575 0.215821
66 1 0.150046 0.372312 0.236646
67 1 0.145383 0.192705 0.240857
68 1 0.140739 0.230854 0.230448
69 1 0.154703 0.436501 0.226143
70 1 0.159403 0.370089 0.234954
71 1 0.154774 0.190903 0.255886
72 1 0.150213 0.233198 0.246342
73 1 0.164082 0.429159 0.225306
74 1 0.168502 0.363983 0.240821
75 1 0.164076 0.191502 0.258638
76 1 0.159407 0.233374 0.249086
77 1 0.173366 0.431076 0.225232
78 1 0.178146 0.370829 0.244111
79 1 0.173466 0.187549 0.262951
80 1 0.168992 0.229747 0.261021
81 1 0.183128 0.429598 0.239937
82 1 0.187737 0.36414 0.260494
83 1 0.18299 0.188795 0.285347
84 1 0.178339 0.227606 0.266957
85 1 0.192339 0.42776 0.246082
86 1 0.197076 0.365158 0.25508
87 1 0.192282 0.187307 0.296619
88 1 0.187501 0.231703 0.285975
89 1 0.201725 0.430098 0.256905
90 1 0.206528 0.36601 0.268832
91 1 0.201651 0.191815 0.295731
92 1 0.197046 0.227479 0.282887
93 1 0.211279 0.431505 0.24928
94 1 0.216054 0.368188 0.268361
95 1 0.211024 0.197178 0.296527
96 1 0.206376 0.232706 0.294535
97 1 0.220766 0.42901 0.249162
98 1 0.225358 0.367504 0.266251
99 1 0.220451 0.191221 0.300787
100 1 0.215742 0.233685 0.287975
101 1 0.230069 0.429678 0.246229
102 1 0.234844 0.364402 0.254924
103 1 0.230075 0.186835 0.295066
104 1 0.225236 0.228488 0.294342
105 1 0.239414 0.428298 0.233962
106 1 0.243989 0.362928 0.23943
107 1 0.239328 0.192212 0.279707
108 1 0.23464 0.229668 0.275311
109 1 0.248846 0.427196 0.230158
110 1 0.253644 0.362841 0.251901
111 1 0.248716 0.192872 0.283055
112 1 0.243976 0.230047 0.270877
113 1 0.25838 0.426955 0.233421
114 1 0.26303 0.362261 0.253442
115 1 0.258208 0.189999 0.295893
116 1 0.253519 0.228585 0.280988
117 1 0.267674 0.428901 0.246118
118 1 0.272514 0.369092 0.26373
119 1 0.267688 0.189527 0.30699
120 1 0.262932 0.231365 0.291518
121 1 0.27751 0.435142 0.245576
122 1 0.282178 0.373542 0.265772
123 1 0.277243 0.196793 0.310943
124 1 0.272379 0.234078 0.303417
125 1 0.286785 0.439457 0.241018
126 1 0.29146 0.378942 0.266412
127 1 0.286556 0.197954 0.317292
128 1 0.281844 0.237494 0.304
129 1 0.29632 0.439738 0.255207
130 1 0.30092 0.377426 0.278661
131 1 0.295974 0.209938 0.329783
132 1 0.291259 0.245949 0.312938
133 1 0.305524 0.439414 0.266317
134 1 0.310216 0.380632 0.28
135 1 0.305268 0.20958 0.331667
136 1 0.300593 0.247655 0.320433
137 1 0.314831 0.443342 0.260685
138 1 0.319607 0.380636 0.284772
139 1 0.314891 0.210677 0.338557
140 1 0.310084 0.24617 0.324245
141 1 0.324359 0.440686 0.259384
142 1 0.328942 0.380729 0.292539
143 1 0.323991 0.208428 0.337183
144 1 0.319519 0.248579 0.324742
145 1 0.333631 0.439667 0.264597
146 1 0.338157 0.374418 0.288909
147 1 0.333351 0.211642 0.35358
148 1 0.328679 0.247479 0.332311
149 1 0.34292 0.439665 0.269979
150 1 0.347647 0.379089 0.298856
151 1 0.342896 0.220383 0.364538
152 1 0.33803 0.251081 0.346623
153 1 0.35236 0.434727 0.274945
154 1 0.357219 0.379853 0.297038
155 1 0.3523 0.215145 0.373643
156 1 0.347479 0.25493 0.352011
157 1 0.361818 0.428193 0.260825
158 1 0.366343 0.370041 0.2938
159 1 0.361514 0.208727 0.372746
160 1 0.356964 0.250093 0.3552
161 1 0.370859 0.42915 0.26329
162 1 0.375713 0.374986 0.295515
163 1 0.370939 0.212047 0.371309
164 1 0.366335 0.245379 0.350743
165 1 0.3805 0.427675 0.269907
166 1 0.385087 0.37165 0.298759
167 1 0.380363 0.219772 0.378001
168 1 0.375644 0.253977 0.358716
169 1 0.389903 0.42685 0.268749
170 1 0.394462 0.365892 0.295188
171 1 0.389594 0.204862 0.378121
172 1 0.385166 0.252625 0.363636
173 1 0.399267 0.413998 0.254965
174 1 0.403795 0.35278 0.283269
175 1 0.399044 0.19793 0.368787
176 1 0.394435 0.234901 0.347866
177 1 0.408597 0.403903 0.255258
178 1 0.413186 0.350551 0.296071
179 1 0.408265 0.190746 0.36805
180 1 0.40366 0.230574 0.351305
181 1 0.417906 0.400794 0.269483
182 1 0.422448 0.338189 0.302117
183 1 0.417614 0.177253 0.371875
184 1 0.413011 0.219725 0.352003
185 1 0.427361 0.395521 0.283989
186 1 0.431808 0.331179 0.320119
187 1 0.426636 0.176291 0.391185
188 1 0.422319 0.215488 0.359167
189 1 0.43649 0.380091 0.287517
190 1 0.440985 0.319992 0.321956
191 1 0.435946 0.163952 0.401102
192 1 0.43148 0.20897 0.381805
193 1 0.445961 0.365066 0.295145
194 1 0.450136 0.305742 0.336233
195 1 0.445107 0.165049 0.428911
196 1 0.440699 0.199807 0.389767
197 1 0.454889 0.35891 0.318084
198 1 0.459295 0.301772 0.361434
199 1 0.454104 0.155999 0.454288
200 1 0.449746 0.195408 0.415424
201 1 0.464101 0.350728 0.34419
202 1 0.468439 0.299669 0.405217
203 1 0.463338 0.148923 0.475582
204 1 0.458906 0.184511 0.437883
205 1 0.473286 0.347381 0.402676
206 1 0.477002 0.315443 0.489538
207 1 0.472144 0.17029 0.524726
208 1 0.467982 0.188482 0.469523
209 1 0.481688 0.362417 0.506444
210 1 0.484749 0.348774 0.607715
211 1 0.479802 0.214411 0.662003
212 1 0.476419 0.210906 0.574829
213 1 0.489662 0.392458 0.61988
214 1 0.49243 0.399538 0.730946
215 1 0.486404 0.302105 0.802608
216 1 0.483481 0.275578 0.708128
217 1 0.497089 0.451724 0.735884
218 1 0.498755 0.517462 0.849573
219 1 0.492797 0.408896 0.938681
220 1 0.490622 0.358104 0.843624
221 1 0.501948 0.618069 0.83911
222 1 0.50117 0.746851 0.896788
223 1 0.495756 0.631174 1.00664
224 1 0.495804 0.507821 0.961008
225 1 0.502716 0.855704 0.823281
226 1 0.498958 0.926703 0.756224
227 1 0.494408 0.845058 0.914031
228 1 0.496852 0.750874 0.973685
229 1 0.499246 0.949486 0.623425
230 1 0.495517 0.914564 0.534425
231 1 0.490865 0.90624 0.713701
232 1 0.494173 0.913686 0.80769
233 1 0.496351 0.887166 0.406552
234 1 0.492584 0.835566 0.327929
235 1 0.487491 0.86605 0.495909
236 1 0.490588 0.901496 0.588815
237 1 0.493522 0.769593 0.214506
238 1 0.489767 0.705597 0.136714
239 1 0.484765 0.790752 0.281923
240 1 0.487699 0.831912 0.377839
241 1 0.490728 0.604153 0.0467036
242 1 0.486773 0.511634 0.00641372
243 1 0.482113 0.668687 0.0848224
244 1 0.484811 0.733881 0.171111
245 1 0.487412 0.375991 0.0213317
246 1 0.483517 0.300914 0.0704726
247 1 0.478688 0.453549 0.0011952
248 1 0.481804 0.559234 0.00908106
249 1 0.484147 0.204749 0.173546
250 1 0.480333 0.148439 0.243816
251 1 0.475217 0.250184 0.111091
252 1 0.478242 0.326563 0.0465079
253 1 0.480914 0.0824616 0.36032
254 1 0.476994 0.0348589 0.444102
255 1 0.4724 0.0993451 0.28975
256 1 0.475356 0.163862 0.20653
257 1 0.477537 0.0179061 0.581565
258 1 0.473443 0.0374275 0.663864
259 1 0.468915 -0.00777966 0.496
260 1 0.472076 0.0213132 0.399953
261 1 0.474331 0.130377 0.761918
262 1 0.472616 0.265491 0.739581
263 1 0.466677 0.159163 0.655694
264 1 0.468117 0.0370764 0.618198
265 1 0.475991 0.368468 0.744326
266 1 0.477094 0.456462 0.641274
267 1 0.469991 0.39885 0.576809
268 1 0.468706 0.287801 0.648426
269 1 0.481509 0.525397 0.626128
270 1 0.484097 0.565395 0.517033
271 1 0.476475 0.544145 0.445883
272 1 0.473654 0.483769 0.541238
273 1 0.489339 0.587826 0.502422
274 1 0.492513 0.57584 0.393271
275 1 0.485193 0.586998 0.309693
276 1 0.481238 0.589606 0.404371
277 1 0.497877 0.569792 0.389392
278 1 0.501769 0.539291 0.300847
279 1 0.494937 0.52296 0.209066
280 1 0.4903 0.575969 0.278425
281 1 0.507072 0.551198 0.310575
282 1 0.511262 0.494452 0.2542
283 1 0.504525 0.395563 0.187631
284 1 0.499853 0.466634 0.192439
285 1 0.516333 0.526719 0.273702
286 1 0.520724 0.457404 0.233867
287 1 0.514778 0.32134 0.169057
288 1 0.509758 0.379086 0.190276
289 1 0.525744 0.503335 0.263485
290 1 0.53021 0.430363 0.237379
291 1 0.524734 0.287684 0.160174
292 1 0.519917 0.333452 0.176991
293 1 0.535212 0.474434 0.258256
294 1 0.539598 0.414485 0.221955
295 1 0.53417 0.269368 0.144545
296 1 0.529525 0.310015 0.178139
297 1 0.544373 0.461217 0.250567
298 1 0.549184 0.400839 0.216609
299 1 0.543857 0.252257 0.135294
300 1 0.53899 0.291541 0.156797
301 1 0.553983 0.460939 0.236659
302 1 0.558486 0.401547 0.208087
303 1 0.553439 0.245291 0.134517
304 1 0.548628 0.282965 0.155859
305 1 0.563164 0.462471 0.233104
306 1 0.567775 0.396594 0.210546
307 1 0.562879 0.238011 0.128483
308 1 0.558237 0.275832 0.146151
309 1 0.572421 0.453508 0.236191
310 1 0.577068 0.391252 0.19841
311 1 0.572163 0.241701 0.120021
312 1 0.567407 0.271501 0.151714
313 1 0.581778 0.449548 0.226933
314 1 0.586731 0.397082 0.198703
315 1 0.581562 0.242238 0.106411
316 1 0.576726 0.2713 0.133503
317 1 0.59145 0.449647 0.226539
318 1 0.596031 0.39006 0.197981
319 1 0.591019 0.235762 0.102736
320 1 0.586263 0.274452 0.122375
321 1 0.600793 0.447219 0.221412
322 1 0.605505 0.390769 0.189506
323 1 0.600546 0.230466 0.104101
324 1 0.5957 0.270088 0.1251
325 1 0.610175 0.442943 0.221884
326 1 0.614744 0.383516 0.190242
327 1 0.609668 0.225393 0.110699
328 1 0.605158 0.268563 0.127656
329 1 0.619633 0.441662 0.212268
330 1 0.624283 0.381494 0.18395
331 1 0.619509 0.225624 0.100977
332 1 0.614714 0.259836 0.120851
333 1 0.628969 0.434345 0.216855
334 1 0.633536 0.369685 0.190249
335 1 0.628837 0.217255 0.101766
336 1 0.624225 0.257243 0.120868
337 1 0.638258 0.429409 0.210237
338 1 0.643228 0.374324 0.181868
339 1 0.638276 0.214338 0.106251
340 1 0.633496 0.244928 0.121896
341 1 0.647915 0.436134 0.204579
342 1 0.652641 0.371058 0.175408
343 1 0.647881 0.208098 0.108465
344 1 0.643169 0.249075 0.123029
345 1 0.657417 0.433226 0.201556
346 1 0.662504 0.37837 0.167126
347 1 0.657466 0.209624 0.111307
348 1 0.652752 0.243233 0.125311
349 1 0.667088 0.441275 0.191739
350 1 0.671702 0.383526 0.166466
351 1 0.666854 0.215299 0.0921052
352 1 0.662178 0.250994 0.118067
353 1 0.67627 0.441045 0.193418
354 1 0.681231 0.383032 0.168559
355 1 0.676218 0.217322 0.0956552
356 1 0.67141 0.25618 0.114026
357 1 0.685679 0.446308 0.188548
358 1 0.690421 0.387771 0.164723
359 1 0.685648 0.215326 0.10315
360 1 0.68085 0.254934 0.113413
361 1 0.695031 0.45166 0.18679
362 1 0.699766 0.392547 0.165864
363 1 0.695049 0.227174 0.109448
364 1 0.690209 0.257662 0.11718
365 1 0.704526 0.451344 0.194191
366 1 0.709228 0.388632 0.182764
367 1 0.704355 0.222579 0.115519
368 1 0.699669 0.264805 0.127633
369 1 0.713852 0.445414 0.210571
370 1 0.718594 0.378278 0.196986
371 1 0.713728 0.213269 0.128801
372 1 0.709098 0.255598 0.131532
373 1 0.723378 0.437546 0.22373
374 1 0.727953 0.376215 0.194872
375 1 0.723343 0.205768 0.141244
376 1 0.718554 0.251057 0.146297
377 1 0.732507 0.440524 0.220008
378 1 0.737048 0.3764 0.201216
379 1 0.732782 0.209981 0.126284
380 1 0.728018 0.242232 0.146601
381 1 0.742011 0.433055 0.221891
382 1 0.746513 0.369723 0.209548
383 1 0.741946 0.210595 0.142419
384 1 0.737415 0.249047 0.154324
385 1 0.751215 0.424247 0.227021
386 1 0.755923 0.368036 0.20319
387 1 0.751302 0.198367 0.14826
388 1 0.746635 0.238425 0.164109
389 1 0.760847 0.435808 0.211976
390 1 0.76557 0.370187 0.186822
391 1 0.760852 0.203866 0.133328
392 1 0.756015 0.237377 0.152416
393 1 0.769957 0.427931 0.216206
394 1 0.774898 0.365428 0.203443
395 1 0.770129 0.202132 0.128613
396 1 0.765431 0.240519 0.138625
397 1 0.77978 0.424162 0.23092
398 1 0.78438 0.364379 0.209601
399 1 0.779723 0.200809 0.131162
400 1 0.775058 0.238417 0.143909
401 1 0.789072 0.42696 0.227977
402 1 0.793743 0.366418 0.207243
403 1 0.789155 0.196326 0.141063
404 1 0.784442 0.235318 0.155817
405 1 0.798534 0.423635 0.228468
406 1 0.803239 0.364618 0.210451
407 1 0.798472 0.201746 0.135894
408 1 0.793751 0.239993 0.15357
409 1 0.808095 0.427729 0.227764
410 1 0.812766 0.358951 0.207824
411 1 0.807844 0.196523 0.147047
412 1 0.803232 0.236879 0.153537
413 1 0.817497 0.424886 0.224067
414 1 0.821974 0.354645 0.201319
415 1 0.81722 0.183519 0.154977
416 1 0.812494 0.230836 0.162711
417 1 0.826775 0.416318 0.215282
418 1 0.831363 0.355109 0.186273
419 1 0.826589 0.181133 0.145782
420 1 0.821998 0.217849 0.162784
421 1 0.83608 0.422755 0.205584
422 1 0.840779 0.354143 0.200768
423 1 0.83625 0.183565 0.147353
424 1 0.831563 0.221113 0.155076
425 1 0.845449 0.416357 0.215743
426 1 0.850275 0.349975 0.188481
427 1 0.845577 0.174875 0.140584
428 1 0.841059 0.219488 0.156789
429 1 0.855119 0.411983 0.20035
430 1 0.859813 0.344128 0.186919
431 1 0.854836 0.176197 0.13699
432 1 0.850275 0.217441 0.152365
433 1 0.864436 0.410296 0.205891
434 1 0.869296 0.347926 0.197501
435 1 0.864487 0.170212 0.148238
436 1 0.859618 0.21102 0.148746
437 1 0.873811 0.411388 0.215981
438 1 0.878463 0.349091 0.192732
439 1 0.873829 0.169105 0.159159
440 1 0.869134 0.2103 0.165688
441 1 0.883335 0.408421 0.207293
442 1 0.887876 0.341341 0.199845
443 1 0.883166 0.168847 0.158794
444 1 0.878398 0.209464 0.163395
445 1 0.892496 0.405864 0.211853
446 1 0.897325 0.341858 0.201314
447 1 0.892519 0.162276 0.157225
448 1 0.888022 0.207372 0.170531
449 1 0.902081 0.399734 0.212873
450 1 0.906873 0.3329 0.197931
451 1 0.901799 0.164241 0.16125
452 1 0.897099 0.20681 0.166835
453 1 0.911399 0.399547 0.211393
454 1 0.916103 0.337849 0.209395
455 1 0.91125 0.15727 0.170889
456 1 0.906454 0.195925 0.171515
457 1 0.920995 0.402992 0.213461
458 1 0.925799 0.33748 0.206246
459 1 0.920671 0.165023 0.180319
460 1 0.915939 0.200686 0.182499
461 1 0.930371 0.402851 0.211296
462 1 0.935291 0.3393 0.191704
463 1 0.930228 0.163892 0.183466
464 1 0.925458 0.202331 0.188392
465 1 0.939836 0.401694 0.205112
466 1 0.944275 0.336792 0.203396
467 1 0.939863 0.161489 0.163816
468 1 0.934952 0.199823 0.18026
469 1 0.948927 0.398115 0.219441
470 1 0.953542 0.334487 0.215779
471 1 0.949009 0.159998 0.178144
472 1 0.944384 0.206988 0.173738
473 1 0.958224 0.392308 0.214357
474 1 0.96299 0.328092 0.202378
475 1 0.958393 0.149454 0.187489
476 1 0.953734 0.191084 0.200105
477 1 0.967646 0.395134 0.204389
478 1 0.972411 0.333268 0.200221
479 1 0.967648 0.155827 0.197199
480 1 0.962933 0.190543 0.194897
481 1 0.976938 0.402913 0.208139
482 1 0.981671 0.335242 0.208961
483 1 0.977101 0.150411 0.201538
484 1 0.972456 0.193157 0.200214
485 1 0.986452 0.394934 0.204796
486 1 0.99112 0.328109 0.201112
487 1 0.986445 0.156176 0.202592
488 1 0.981669 0.196811 0.206845
489 1 0.0134025 0.762879 0.200271
490 1 0.0181003 0.727387 0.202079
491 1 0.0136033 0.522736 0.202624
492 1 0.00891684 0.585591 0.200571
493 1 0.0228667 0.767518 0.198308
494 1 0.027671 0.73232 0.198982
495 1 0.0229094 0.528508 0.20408
496 1 0.0182323 0.589604 0.204476
497 1 0.0323155 0.779391 0.205108
498 1 0.0369862 0.736883 0.201993
499 1 0.0325763 0.532317 0.196865
500 1 0.0277712 0.594621 0.197303
501 1 0.0416566 0.78491 0.203822
502 1 0.0464906 0.743395 0.205258
503 1 0.0419936 0.535368 0.201328
504 1 0.0371413 0.59839 0.197568
505 1 0.0511943 0.789127 0.19853
506 1 0.0557514 0.749961 0.189576
507 1 0.051211 0.541278 0.190051
508 1 0.0465333 0.605739 0.196435
509 1 0.0604656 0.793951 0.181323
510 1 0.0651823 0.757126 0.176249
511 1 0.0607363 0.549786 0.182549
512 1 0.0557973 0.612094 0.181274
513 1 0.0701336 0.796023 0.181828
514 1 0.074695 0.755034 0.185186
515 1 0.0700828 0.552533 0.174773
516 1 0.0653433 0.61496 0.169684
517 1 0.0795898 0.794621 0.198881
518 1 0.0842018 0.747781 0.201816
519 1 0.0794798 0.550561 0.196948
520 1 0.0748 0.61598 0.183425
521 1 0.0889355 0.790864 0.199483
522 1 0.0936093 0.747395 0.201338
523 1 0.0888393 0.548091 0.200919
524 1 0.084311 0.608707 0.201619
525 1 0.098166 0.790969 0.19786
526 1 0.102893 0.756106 0.198845
527 1 0.0983414 0.55043 0.201655
528 1 0.0935607 0.611842 0.198448
529 1 0.107509 0.803151 0.191198
530 1 0.112351 0.771874 0.187542
531 1 0.107866 0.560211 0.208777
532 1 0.103008 0.615614 0.201353
533 1 0.116962 0.816048 0.185479
534 1 0.121741 0.772379 0.189009
535 1 0.117227 0.567981 0.191634
536 1 0.112447 0.630583 0.195226
537 1 0.12653 0.815234 0.19207
538 1 0.131217 0.777942 0.189651
539 1 0.126539 0.572292 0.203229
540 1 0.121859 0.634574 0.192881
541 1 0.135798 0.815644 0.167064
542 1 0.14044 0.774305 0.172844
543 1 0.135836 0.574378 0.208841
544 1 0.13114 0.64134 0.207057
545 1 0.145084 0.812629 0.171014
546 1 0.149857 0.77463 0.19082
547 1 0.145266 0.570571 0.202493
548 1 0.140518 0.635817 0.198596
549 1 0.154609 0.814848 0.193683
550 1 0.159525 0.77357 0.200071
551 1 0.154518 0.569355 0.210635
552 1 0.149967 0.63677 0.201035
553 1 0.164307 0.808161 0.202744
554 1 0.169022 0.769368 0.200074
555 1 0.164201 0.562858 0.213509
556 1 0.159367 0.632204 0.201739
557 1 0.173807 0.806719 0.182433
558 1 0.178455 0.764114 0.184625
559 1 0.173568 0.565645 0.212562
560 1 0.168912 0.630738 0.210689
561 1 0.182963 0.803475 0.184076
562 1 0.18764 0.762065 0.185435
563 1 0.182858 0.559597 0.208172
564 1 0.178215 0.624256 0.202185
565 1 0.192311 0.802682 0.170015
566 1 0.197161 0.760754 0.178143
567 1 0.192267 0.558773 0.226352
568 1 0.187617 0.624477 0.209765
569 1 0.201852 0.801352 0.153131
570 1 0.206584 0.759981 0.162746
571 1 0.201859 0.564404 0.228374
572 1 0.19711 0.625971 0.210567
573 1 0.211291 0.797865 0.147157
574 1 0.215894 0.756031 0.149701
575 1 0.211217 0.562713 0.209567
576 1 0.206569 0.630571 0.200396
577 1 0.220669 0.79191 0.13184
578 1 0.225374 0.757264 0.149888
579 1 0.220741 0.559745 0.209113
580 1 0.215987 0.619125 0.191235
581 1 0.230086 0.79459 0.125448
582 1 0.234843 0.752837 0.134866
583 1 0.23002 0.559812 0.209259
584 1 0.225491 0.623569 0.196177
585 1 0.239436 0.791187 0.119555
586 1 0.244295 0.754021 0.131959
587 1 0.239117 0.558779 0.198421
588 1 0.234574 0.618819 0.178889
589 1 0.249092 0.787712 0.125122
590 1 0.253755 0.750641 0.145281
591 1 0.248821 0.557587 0.197552
592 1 0.243946 0.620189 0.174829
593 1 0.25838 0.790455 0.129024
594 1 0.263316 0.754075 0.150487
595 1 0.258398 0.559762 0.206373
596 1 0.253529 0.622345 0.190064
597 1 0.267911 0.793875 0.139651
598 1 0.272748 0.760083 0.149936
599 1 0.267681 0.56433 0.208985
600 1 0.263049 0.627129 0.196228
601 1 0.277515 0.796641 0.14286
602 1 0.282095 0.761565 0.157946
603 1 0.277437 0.562095 0.20167
604 1 0.272429 0.62492 0.192618
605 1 0.286807 0.798722 0.145408
606 1 0.291641 0.765979 0.151276
607 1 0.286969 0.567527 0.195242
608 1 0.282293 0.629859 0.188489
609 1 0.296377 0.800304 0.143555
610 1 0.30092 0.761981 0.16425
611 1 0.296204 0.570664 0.216793
612 1 0.291603 0.632503 0.185236
613 1 0.305463 0.799889 0.152347
614 1 0.310042 0.763693 0.153291
615 1 0.305666 0.566469 0.21726
616 1 0.301028 0.629263 0.198255
617 1 0.314729 0.803787 0.136656
618 1 0.319512 0.76594 0.144782
619 1 0.314919 0.571422 0.215478
620 1 0.310245 0.633754 0.197492
621 1 0.324258 0.796836 0.116774
622 1 0.328919 0.75889 0.132711
623 1 0.32423 0.571219 0.213326
624 1 0.319535 0.633543 0.191352
625 1 0.333677 0.779522 0.114317
626 1 0.338276 0.744659 0.136173
627 1 0.333631 0.561822 0.212166
628 1 0.328921 0.626354 0.184584
629 1 0.34282 0.782622 0.116228
630 1 0.347705 0.737803 0.12574
631 1 0.34281 0.56387 0.219106
632 1 0.338269 0.619495 0.194785
633 1 0.352414 0.770911 0.0982733
634 1 0.357139 0.727062 0.0999408
635 1 0.352336 0.553088 0.203813
636 1 0.347622 0.615482 0.184043
637 1 0.361726 0.768627 0.093808
638 1 0.366513 0.733667 0.111671
639 1 0.36193 0.545802 0.19923
640 1 0.357144 0.607518 0.167506
641 1 0.371325 0.762742 0.0917457
642 1 0.376028 0.730124 0.108837
643 1 0.371251 0.549134 0.197316
644 1 0.366566 0.606001 0.165953
645 1 0.380648 0.767319 0.0864204
646 1 0.385545 0.728674 0.10709
647 1 0.380425 0.541634 0.193458
648 1 0.375932 0.607324 0.165888
649 1 0.390171 0.760044 0.0849017
650 1 0.394851 0.724653 0.113402
651 1 0.389906 0.546475 0.205989
652 1 0.385117 0.600442 0.168851
653 1 0.399513 0.756061 0.102226
654 1 0.404175 0.71549 0.107955
655 1 0.399364 0.532621 0.194569
656 1 0.394492 0.599438 0.172273
657 1 0.409034 0.739218 0.0900009
658 1 0.413853 0.70071 0.104262
659 1 0.40907 0.528012 0.199006
660 1 0.404174 0.593708 0.166752
661 1 0.418649 0.733826 0.0917276
662 1 0.423432 0.69801 0.1065
663 1 0.418334 0.519356 0.202953
664 1 0.413811 0.58273 0.17089
665 1 0.428195 0.723024 0.0998791
666 1 0.432918 0.681487 0.123312
667 1 0.427703 0.512125 0.216978
668 1 0.423159 0.571382 0.177628
669 1 0.437818 0.710638 0.110779
670 1 0.442395 0.661542 0.127851
671 1 0.436772 0.497455 0.216924
672 1 0.432389 0.56191 0.183968
673 1 0.447291 0.684999 0.1066
674 1 0.451837 0.642131 0.129776
675 1 0.446062 0.47604 0.223136
676 1 0.441771 0.538393 0.188375
677 1 0.456815 0.667335 0.115255
678 1 0.461591 0.622115 0.136459
679 1 0.455511 0.459919 0.237343
680 1 0.451045 0.521019 0.198349
681 1 0.466611 0.634973 0.125045
682 1 0.471405 0.581826 0.158049
683 1 0.465092 0.450439 0.259875
684 1 0.460693 0.50474 0.212143
685 1 0.476418 0.556291 0.152135
686 1 0.481175 0.481875 0.182915
687 1 0.474419 0.423171 0.305778
688 1 0.470221 0.48489 0.238933
689 1 0.486421 0.425915 0.203228
690 1 0.490677 0.379647 0.277703
691 1 0.483554 0.403636 0.397609
692 1 0.479841 0.426576 0.302068
693 1 0.49581 0.356605 0.313125
694 1 0.49948 0.377501 0.402257
695 1 0.491842 0.403588 0.503113
696 1 0.488701 0.402804 0.397232
697 1 0.504342 0.423763 0.442614
698 1 0.507277 0.4975 0.528974
699 1 0.499457 0.450553 0.624225
700 1 0.49701 0.409347 0.515569
701 1 0.510974 0.584752 0.562574
702 1 0.512536 0.680912 0.641491
703 1 0.505218 0.608163 0.739528
704 1 0.504018 0.523483 0.638007
705 1 0.514609 0.808903 0.649524
706 1 0.513643 0.943644 0.609044
707 1 0.507325 0.846029 0.75856
708 1 0.508826 0.706972 0.734244
709 1 0.512996 0.986068 0.490043
710 1 0.510156 0.962507 0.390987
711 1 0.504175 0.965901 0.571651
712 1 0.508452 0.937979 0.663016
713 1 0.510016 0.883501 0.287843
714 1 0.507115 0.800866 0.221881
715 1 0.501232 0.889458 0.358628
716 1 0.504838 0.951414 0.437423
717 1 0.507282 0.701207 0.137709
718 1 0.504473 0.616501 0.0684589
719 1 0.498374 0.746639 0.181332
720 1 0.502127 0.813644 0.252202
721 1 0.504191 0.493372 0.0225785
722 1 0.501203 0.38508 0.0176963
723 1 0.495607 0.565665 0.0239204
724 1 0.499453 0.649083 0.0854189
725 1 0.500614 0.268749 0.0830881
726 1 0.497665 0.203112 0.162945
727 1 0.49223 0.343755 0.0486797
728 1 0.496374 0.428807 0.0185995
729 1 0.497799 0.151864 0.279297
730 1 0.494528 0.120189 0.373089
731 1 0.488844 0.182201 0.206599
732 1 0.492733 0.240321 0.135805
733 1 0.494585 0.0978587 0.49869
734 1 0.491213 0.0763566 0.591609
735 1 0.485766 0.0892288 0.409628
736 1 0.489625 0.121688 0.328195
737 1 0.490892 0.0866677 0.716412
738 1 0.487475 0.0921253 0.811392
739 1 0.482256 0.0343169 0.622102
740 1 0.486369 0.0572365 0.537582
741 1 0.487346 0.151188 0.923326
742 1 0.48473 0.245137 0.980952
743 1 0.478815 0.130509 0.834975
744 1 0.482711 0.0640397 0.759003
745 1 0.485897 0.368331 1.00948
746 1 0.485939 0.4886 0.959879
747 1 0.479263 0.370107 0.841692
748 1 0.48049 0.246007 0.901265
749 1 0.489034 0.580279 0.933417
750 1 0.491199 0.634867 0.834141
751 1 0.48427 0.529446 0.736336
752 1 0.482615 0.468339 0.849617
753 1 0.495157 0.695657 0.793746
754 1 0.498092 0.711815 0.702911
755 1 0.491666 0.597144 0.614059
756 1 0.489106 0.584452 0.724254
757 1 0.501912 0.768525 0.654985
758 1 0.505209 0.770851 0.56233
759 1 0.49966 0.621983 0.498876
760 1 0.496524 0.632908 0.60133
761 1 0.509343 0.816638 0.515753
762 1 0.513616 0.793638 0.461275
763 1 0.508103 0.642269 0.395924
764 1 0.504474 0.669976 0.478773
765 1 0.518045 0.830761 0.46831
766 1 0.522493 0.79998 0.43777
767 1 0.517328 0.628561 0.350978
768 1 0.512893 0.684434 0.398359
769 1 0.52708 0.836012 0.455107
770 1 0.531451 0.780387 0.432723
771 1 0.52628 0.61689 0.333617
772 1 0.52204 0.681846 0.374572
773 1 0.536134 0.806655 0.444827
774 1 0.54051 0.763727 0.414731
775 1 0.535532 0.590703 0.326861
776 1 0.531065 0.659546 0.36657
777 1 0.545152 0.796781 0.421245
778 1 0.54954 0.752838 0.394318
779 1 0.544705 0.582187 0.318007
780 1 0.540387 0.639265 0.35713
781 1 0.554191 0.79477 0.403729
782 1 0.558872 0.757899 0.387105
783 1 0.554076 0.577266 0.301341
784 1 0.549429 0.630581 0.341514
785 1 0.563725 0.793972 0.408316
786 1 0.56818 0.755135 0.388414
787 1 0.563369 0.575618 0.298748
788 1 0.558752 0.632217 0.330736
789 1 0.572976 0.788505 0.402436
790 1 0.57772 0.754527 0.389698
791 1 0.5727 0.573473 0.297345
792 1 0.568144 0.632804 0.326894
793 1 0.5824 0.790302 0.394323
794 1 0.587054 0.758549 0.368758
795 1 0.582114 0.573268 0.289944
796 1 0.577507 0.62572 0.327537
797 1 0.591724 0.796398 0.383342
798 1 0.596279 0.756832 0.370171
799 1 0.591418 0.572747 0.287655
800 1 0.586764 0.629655 0.313179
801 1 0.601016 0.788927 0.383949
802 1 0.605625 0.753631 0.360327
803 1 0.600939 0.572669 0.280995
804 1 0.596175 0.630619 0.311333
805 1 0.61047 0.788436 0.3658
806 1 0.614993 0.749301 0.353949
807 1 0.610233 0.565719 0.279124
808 1 0.605482 0.625739 0.302282
809 1 0.61972 0.785783 0.369409
810 1 0.62451 0.742434 0.357072
811 1 0.619649 0.560501 0.276232
812 1 0.615119 0.626165 0.306208
813 1 0.629158 0.781242 0.375446
814 1 0.63386 0.745196 0.356514
815 1 0.629195 0.553333 0.276725
816 1 0.62458 0.617904 0.298273
817 1 0.638744 0.781105 0.360819
818 1 0.643376 0.738198 0.332676
819 1 0.638381 0.55439 0.269129
820 1 0.633743 0.612577 0.302339
821 1 0.648065 0.782628 0.342913
822 1 0.652864 0.75018 0.322144
823 1 0.648292 0.555988 0.258598
824 1 0.643137 0.610858 0.28106
825 1 0.65759 0.78594 0.351538
826 1 0.662397 0.742881 0.351248
827 1 0.657558 0.561705 0.257886
828 1 0.652926 0.620244 0.28181
829 1 0.667032 0.779011 0.373611
830 1 0.671757 0.744809 0.362707
831 1 0.667091 0.561257 0.254851
832 1 0.662161 0.618566 0.28514
833 1 0.676253 0.784117 0.365762
834 1 0.68121 0.752711 0.337789
835 1 0.67647 0.570255 0.25554
836 1 0.671688 0.623088 0.291853
837 1 0.685813 0.791233 0.353968
838 1 0.690415 0.753275 0.342113
839 1 0.685815 0.572337 0.246108
840 1 0.681198 0.629819 0.275835
841 1 0.69505 0.783104 0.369437
842 1 0.699681 0.754088 0.343862
843 1 0.695049 0.575204 0.247978
844 1 0.690417 0.631995 0.274212
845 1 0.704311 0.796802 0.352914
846 1 0.709156 0.758684 0.328059
847 1 0.704382 0.574948 0.250137
848 1 0.69969 0.632145 0.277026
849 1 0.71399 0.798235 0.343594
850 1 0.718737 0.761582 0.328931
851 1 0.713748 0.57641 0.25558
852 1 0.70913 0.63052 0.279435
853 1 0.723411 0.806023 0.343114
854 1 0.727969 0.765291 0.329466
855 1 0.723233 0.567576 0.26416
856 1 0.718712 0.632112 0.28012
857 1 0.732733 0.797361 0.344598
858 1 0.737432 0.756004 0.331009
859 1 0.732486 0.5679 0.260907
860 1 0.727911 0.629614 0.279206
861 1 0.742085 0.796775 0.349724
862 1 0.746739 0.752527 0.333994
863 1 0.741931 0.559785 0.267836
864 1 0.737377 0.622375 0.286502
865 1 0.751433 0.790897 0.348259
866 1 0.756139 0.748982 0.330069
867 1 0.751437 0.557161 0.269614
868 1 0.746601 0.618969 0.290813
869 1 0.7608 0.787469 0.333236
870 1 0.765564 0.750485 0.322027
871 1 0.760771 0.562032 0.260868
872 1 0.75597 0.619646 0.285251
873 1 0.770192 0.786301 0.327616
874 1 0.774962 0.750798 0.323974
875 1 0.77017 0.558853 0.26865
876 1 0.765446 0.615844 0.289684
877 1 0.779751 0.792025 0.326238
878 1 0.784558 0.751308 0.308207
879 1 0.779611 0.55543 0.269816
880 1 0.774929 0.616786 0.285561
881 1 0.789191 0.796373 0.315306
882 1 0.793958 0.759397 0.309883
883 1 0.789274 0.557195 0.260523
884 1 0.784428 0.619324 0.285205
885 1 0.798612 0.797506 0.324573
886 1 0.803292 0.756422 0.311281
887 1 0.798708 0.558657 0.263041
888 1 0.793961 0.622486 0.273478
889 1 0.807972 0.794043 0.314057
890 1 0.812653 0.760687 0.301184
891 1 0.807936 0.558226 0.263412
892 1 0.803218 0.61831 0.278379
893 1 0.817475 0.790103 0.312321
894 1 0.822017 0.746134 0.293133
895 1 0.817486 0.555028 0.257156
896 1 0.812922 0.621457 0.272077
897 1 0.826743 0.791836 0.293259
898 1 0.831483 0.754442 0.28663
899 1 0.826748 0.547798 0.250658
900 1 0.822229 0.611442 0.269004
901 1 0.836298 0.790743 0.290385
902 1 0.840774 0.747794 0.28014
903 1 0.836169 0.550996 0.242675
904 1 0.831485 0.61493 0.255803
905 1 0.845442 0.792278 0.277703
906 1 0.850095 0.753654 0.26195
907 1 0.84549 0.548489 0.24019
908 1 0.8408 0.608763 0.261331
909 1 0.854875 0.793225 0.256001
910 1 0.85958 0.751466 0.248791
911 1 0.854653 0.546488 0.222488
912 1 0.84996 0.615398 0.238612