ITEM: TIMESTEP
434000
ITEM: NUMBER OF ATOMS
976
ITEM: BOX BOUNDS ss ss ss
-0.0238218 293.199
-1.311 8.68241
-2.68954 8.30991
ITEM: ATOMS id type xs ys zs
1 1 0.00431814 0.415882 0.244628
2 1 0.00847486 0.343428 0.244699
3 1 0.00427208 0.132522 0.244673
4 1 9.58418e-05 0.201163 0.244637
5 1 0.00429733 0.841404 0.244642
6 1 0.00846213 0.770993 0.244653
7 1 0.00424208 0.557426 0.244655
8 1 9.65613e-05 0.62823 0.244642
9 1 0.0132411 0.41196 0.248218
10 1 0.0178981 0.346662 0.253867
11 1 0.0135307 0.150566 0.252445
12 1 0.00887953 0.187443 0.24657
13 1 0.0225889 0.409692 0.250737
14 1 0.0272881 0.342942 0.247
15 1 0.0226824 0.156359 0.252629
16 1 0.0180834 0.197839 0.257254
17 1 0.0320831 0.418937 0.251619
18 1 0.0367657 0.353177 0.256543
19 1 0.0320556 0.161473 0.268514
20 1 0.02744 0.195371 0.250053
21 1 0.0414623 0.42153 0.254541
22 1 0.0459042 0.354243 0.265581
23 1 0.0414037 0.166373 0.278095
24 1 0.0367315 0.206264 0.27393
25 1 0.0507335 0.426514 0.265627
26 1 0.0554956 0.356522 0.283873
27 1 0.0507515 0.17362 0.292928
28 1 0.0460432 0.209195 0.281549
29 1 0.0601727 0.426998 0.272963
30 1 0.0650092 0.352424 0.279479
31 1 0.0600364 0.166711 0.310904
32 1 0.0554493 0.212503 0.305025
33 1 0.0694377 0.423156 0.263479
34 1 0.0742504 0.358563 0.270418
35 1 0.069647 0.168541 0.308315
36 1 0.0648272 0.205232 0.301616
37 1 0.0789493 0.429946 0.253087
38 1 0.0836032 0.369089 0.263674
39 1 0.0791248 0.176355 0.306163
40 1 0.0743496 0.209817 0.29815
41 1 0.0883165 0.439875 0.255444
42 1 0.0928965 0.36835 0.265894
43 1 0.0883385 0.178304 0.300592
44 1 0.0837881 0.225119 0.296549
45 1 0.09741 0.440319 0.261921
46 1 0.102455 0.370822 0.269201
47 1 0.0975393 0.181904 0.291912
48 1 0.0928281 0.222578 0.280035
49 1 0.107053 0.444112 0.261141
50 1 0.111703 0.374942 0.269795
51 1 0.107007 0.184674 0.298599
52 1 0.102348 0.224545 0.286177
53 1 0.116462 0.445076 0.262105
54 1 0.121205 0.379286 0.278228
55 1 0.116489 0.193043 0.30572
56 1 0.111794 0.228074 0.297121
57 1 0.125853 0.448793 0.262506
58 1 0.130756 0.380479 0.274593
59 1 0.125956 0.196343 0.316926
60 1 0.121356 0.231928 0.30221
61 1 0.135284 0.444256 0.264158
62 1 0.139906 0.366412 0.26562
63 1 0.134989 0.184735 0.298863
64 1 0.130492 0.233388 0.303055
65 1 0.144667 0.431252 0.259832
66 1 0.149295 0.360854 0.261712
67 1 0.144626 0.172199 0.29989
68 1 0.139873 0.219954 0.29258
69 1 0.15384 0.429194 0.261325
70 1 0.15857 0.365021 0.269964
71 1 0.154031 0.176135 0.290662
72 1 0.14929 0.21562 0.289484
73 1 0.163263 0.426551 0.26249
74 1 0.168013 0.357585 0.268224
75 1 0.163185 0.169508 0.284229
76 1 0.158618 0.216701 0.280911
77 1 0.172643 0.424279 0.263234
78 1 0.177443 0.353845 0.264499
79 1 0.172563 0.163204 0.291672
80 1 0.167849 0.206655 0.283054
81 1 0.181925 0.420839 0.259209
82 1 0.186506 0.347863 0.261988
83 1 0.181966 0.159115 0.295375
84 1 0.177241 0.205392 0.287259
85 1 0.191265 0.417975 0.249433
86 1 0.195987 0.355538 0.267885
87 1 0.191455 0.168881 0.296928
88 1 0.186617 0.203487 0.286011
89 1 0.200759 0.423115 0.25965
90 1 0.205626 0.362179 0.280296
91 1 0.200808 0.169003 0.315703
92 1 0.196086 0.21146 0.296245
93 1 0.2102 0.436069 0.273721
94 1 0.21498 0.369902 0.298147
95 1 0.210337 0.171274 0.332949
96 1 0.205606 0.212571 0.319227
97 1 0.219717 0.436016 0.286967
98 1 0.22448 0.367581 0.311842
99 1 0.219808 0.186225 0.347329
100 1 0.215025 0.226432 0.334722
101 1 0.228981 0.436036 0.295201
102 1 0.2336 0.372087 0.311062
103 1 0.229111 0.183317 0.35644
104 1 0.224494 0.223567 0.342944
105 1 0.238467 0.43218 0.292139
106 1 0.243168 0.366436 0.311232
107 1 0.238272 0.187227 0.367934
108 1 0.233647 0.223348 0.34364
109 1 0.2479 0.433939 0.286591
110 1 0.252694 0.368018 0.303707
111 1 0.247845 0.190013 0.365924
112 1 0.243005 0.223608 0.358677
113 1 0.257219 0.427941 0.277577
114 1 0.261678 0.366499 0.298931
115 1 0.25703 0.189451 0.373153
116 1 0.252493 0.228899 0.353933
117 1 0.266641 0.428264 0.277581
118 1 0.271399 0.366802 0.309616
119 1 0.266499 0.193506 0.37475
120 1 0.261854 0.226835 0.356303
121 1 0.276033 0.424666 0.286404
122 1 0.28065 0.366606 0.310473
123 1 0.276017 0.185842 0.38238
124 1 0.271326 0.225856 0.364882
125 1 0.285303 0.427318 0.283322
126 1 0.289866 0.36502 0.306525
127 1 0.2855 0.194038 0.384189
128 1 0.280888 0.228247 0.37016
129 1 0.294979 0.425622 0.281701
130 1 0.299655 0.36578 0.317038
131 1 0.29486 0.189203 0.388779
132 1 0.290187 0.226829 0.364646
133 1 0.304384 0.427005 0.279642
134 1 0.309084 0.362304 0.308021
135 1 0.304325 0.197601 0.385867
136 1 0.299601 0.228914 0.37018
137 1 0.313662 0.426249 0.270135
138 1 0.318514 0.370433 0.29486
139 1 0.313862 0.198236 0.39034
140 1 0.309125 0.235195 0.375248
141 1 0.323143 0.42856 0.258627
142 1 0.327854 0.369541 0.292323
143 1 0.32324 0.214147 0.386424
144 1 0.318396 0.245131 0.365638
145 1 0.333043 0.430259 0.273079
146 1 0.337828 0.379023 0.311285
147 1 0.33275 0.208007 0.391192
148 1 0.327818 0.240211 0.362902
149 1 0.34252 0.443786 0.278785
150 1 0.347057 0.384836 0.316212
151 1 0.342266 0.211824 0.398373
152 1 0.337556 0.244165 0.379013
153 1 0.351684 0.442253 0.291696
154 1 0.356399 0.382034 0.319651
155 1 0.351737 0.223387 0.404703
156 1 0.346914 0.253025 0.382347
157 1 0.361022 0.444291 0.293725
158 1 0.365755 0.39112 0.332039
159 1 0.361184 0.214866 0.407453
160 1 0.356514 0.251872 0.387356
161 1 0.370544 0.447882 0.29388
162 1 0.375313 0.380625 0.318646
163 1 0.370547 0.22107 0.405609
164 1 0.365844 0.255175 0.391147
165 1 0.380144 0.441436 0.281581
166 1 0.384536 0.376765 0.316614
167 1 0.379845 0.210325 0.411826
168 1 0.375244 0.253064 0.386788
169 1 0.389284 0.439602 0.289998
170 1 0.393877 0.385823 0.329759
171 1 0.389125 0.219835 0.412996
172 1 0.384489 0.250491 0.384754
173 1 0.398531 0.436567 0.291087
174 1 0.403194 0.374142 0.32861
175 1 0.398318 0.216631 0.421936
176 1 0.393664 0.256316 0.399056
177 1 0.407779 0.431503 0.296813
178 1 0.412487 0.375016 0.335602
179 1 0.407699 0.211004 0.433539
180 1 0.402988 0.249679 0.403405
181 1 0.417335 0.430889 0.297579
182 1 0.421953 0.365502 0.333255
183 1 0.416772 0.216299 0.437098
184 1 0.412215 0.256287 0.413144
185 1 0.42655 0.414852 0.302843
186 1 0.431016 0.354906 0.34253
187 1 0.426018 0.193588 0.430001
188 1 0.421492 0.23987 0.410565
189 1 0.435852 0.409567 0.315286
190 1 0.44054 0.350604 0.352788
191 1 0.435397 0.188989 0.442346
192 1 0.430694 0.224389 0.410671
193 1 0.445192 0.403994 0.323621
194 1 0.449785 0.34568 0.370542
195 1 0.444544 0.183873 0.454939
196 1 0.440155 0.222696 0.424004
197 1 0.454509 0.399946 0.339973
198 1 0.458818 0.341244 0.387365
199 1 0.453576 0.181554 0.473779
200 1 0.449162 0.22009 0.442907
201 1 0.463509 0.387446 0.362737
202 1 0.467808 0.330821 0.408711
203 1 0.462688 0.174461 0.49062
204 1 0.458209 0.217409 0.460059
205 1 0.4727 0.372628 0.395679
206 1 0.476612 0.324307 0.468348
207 1 0.471526 0.18736 0.518555
208 1 0.467201 0.21057 0.471468
209 1 0.48117 0.357422 0.477162
210 1 0.484301 0.347405 0.580452
211 1 0.479017 0.222206 0.644461
212 1 0.475573 0.230399 0.557654
213 1 0.489095 0.383684 0.597099
214 1 0.49137 0.395512 0.714528
215 1 0.485808 0.280517 0.783651
216 1 0.482793 0.278858 0.690823
217 1 0.496204 0.452285 0.728635
218 1 0.49825 0.514282 0.841695
219 1 0.492454 0.400091 0.927461
220 1 0.489668 0.346424 0.833661
221 1 0.501666 0.616087 0.832684
222 1 0.50128 0.751424 0.887972
223 1 0.49599 0.621537 1.00903
224 1 0.495829 0.491364 0.956896
225 1 0.503141 0.861701 0.813932
226 1 0.499326 0.93657 0.750189
227 1 0.495123 0.862247 0.918416
228 1 0.497179 0.753261 0.974709
229 1 0.499776 0.979518 0.625208
230 1 0.495832 0.973136 0.530159
231 1 0.491688 0.926058 0.708226
232 1 0.494823 0.922339 0.806373
233 1 0.496358 0.935795 0.399186
234 1 0.492337 0.890105 0.322492
235 1 0.488146 0.924155 0.494337
236 1 0.491374 0.944436 0.582935
237 1 0.493134 0.813856 0.201029
238 1 0.489194 0.748288 0.134375
239 1 0.484409 0.842321 0.28624
240 1 0.487626 0.892782 0.370426
241 1 0.489927 0.645969 0.0404269
242 1 0.486224 0.555305 0.00474071
243 1 0.481792 0.706177 0.0918141
244 1 0.484538 0.773097 0.17631
245 1 0.486596 0.399954 0.00665766
246 1 0.482779 0.31992 0.0639825
247 1 0.478333 0.490606 0.00619384
248 1 0.481224 0.606311 0.0060339
249 1 0.483046 0.216728 0.160974
250 1 0.479317 0.151937 0.236774
251 1 0.474879 0.284703 0.122664
252 1 0.477962 0.363842 0.0539849
253 1 0.480058 0.0776296 0.349831
254 1 0.476048 0.0325268 0.436497
255 1 0.471669 0.101852 0.282328
256 1 0.474457 0.174517 0.202811
257 1 0.476763 0.0206045 0.564968
258 1 0.472837 0.0495342 0.665533
259 1 0.468251 0.00364091 0.492483
260 1 0.471132 0.0307124 0.391019
261 1 0.474169 0.141181 0.765914
262 1 0.472973 0.293888 0.738789
263 1 0.466702 0.179005 0.66026
264 1 0.467819 0.0417021 0.615286
265 1 0.47662 0.396419 0.742422
266 1 0.477793 0.488012 0.63454
267 1 0.470496 0.42561 0.570624
268 1 0.469015 0.312939 0.655534
269 1 0.482341 0.546788 0.616666
270 1 0.48488 0.586006 0.498822
271 1 0.477361 0.561755 0.438385
272 1 0.47432 0.508847 0.538014
273 1 0.490159 0.598062 0.482759
274 1 0.493442 0.587173 0.375571
275 1 0.486069 0.627338 0.307916
276 1 0.481987 0.605981 0.392242
277 1 0.498364 0.575537 0.377298
278 1 0.502669 0.528639 0.296165
279 1 0.495491 0.541058 0.19451
280 1 0.491168 0.595428 0.25876
281 1 0.507753 0.530593 0.311004
282 1 0.511844 0.473728 0.246078
283 1 0.505668 0.407745 0.147195
284 1 0.500464 0.482191 0.188247
285 1 0.517389 0.509866 0.25862
286 1 0.52165 0.445153 0.21031
287 1 0.515674 0.324752 0.115971
288 1 0.511066 0.379311 0.146308
289 1 0.52662 0.486068 0.248188
290 1 0.530936 0.42964 0.20345
291 1 0.525858 0.286392 0.106148
292 1 0.520929 0.331304 0.130778
293 1 0.536087 0.475219 0.239259
294 1 0.540552 0.424833 0.188608
295 1 0.535509 0.275938 0.0985908
296 1 0.530635 0.31314 0.117181
297 1 0.545348 0.479045 0.217969
298 1 0.549917 0.419098 0.177186
299 1 0.544827 0.268912 0.0798087
300 1 0.54032 0.308143 0.111601
301 1 0.554622 0.459829 0.221712
302 1 0.55936 0.409957 0.187471
303 1 0.554462 0.260906 0.0796793
304 1 0.549616 0.295498 0.0955954
305 1 0.564225 0.453347 0.229979
306 1 0.568948 0.387182 0.194932
307 1 0.563895 0.244599 0.089525
308 1 0.559154 0.29043 0.10592
309 1 0.57353 0.449958 0.219413
310 1 0.578331 0.39338 0.178784
311 1 0.57342 0.230411 0.0904597
312 1 0.568656 0.263197 0.118581
313 1 0.583053 0.455048 0.215515
314 1 0.587738 0.396238 0.176624
315 1 0.582888 0.236476 0.0804728
316 1 0.578079 0.269601 0.102275
317 1 0.592391 0.455705 0.206445
318 1 0.597028 0.396627 0.167613
319 1 0.592163 0.238545 0.0699992
320 1 0.587516 0.274024 0.0962009
321 1 0.60177 0.453517 0.201934
322 1 0.606666 0.395251 0.163315
323 1 0.601865 0.227384 0.0768894
324 1 0.596937 0.265138 0.0961782
325 1 0.611478 0.457096 0.198392
326 1 0.616131 0.401825 0.170692
327 1 0.611358 0.239346 0.0756035
328 1 0.606591 0.269638 0.0914424
329 1 0.620853 0.459608 0.216143
330 1 0.625555 0.396773 0.1781
331 1 0.620686 0.232894 0.077243
332 1 0.616009 0.272111 0.0961711
333 1 0.630126 0.452942 0.21182
334 1 0.634717 0.398198 0.177749
335 1 0.630072 0.230303 0.0931192
336 1 0.625151 0.268095 0.105653
337 1 0.639526 0.457385 0.206609
338 1 0.644228 0.399327 0.184105
339 1 0.639462 0.220176 0.108697
340 1 0.63474 0.261143 0.121882
341 1 0.648973 0.454127 0.216301
342 1 0.653644 0.386407 0.193076
343 1 0.648969 0.221076 0.109023
344 1 0.644175 0.260226 0.125307
345 1 0.658239 0.449616 0.225819
346 1 0.662885 0.385123 0.201801
347 1 0.658374 0.227582 0.0976338
348 1 0.653635 0.258692 0.122781
349 1 0.667517 0.441427 0.238659
350 1 0.67243 0.386931 0.196813
351 1 0.667559 0.221027 0.10457
352 1 0.662935 0.262383 0.124729
353 1 0.67699 0.446859 0.230242
354 1 0.681824 0.387053 0.197212
355 1 0.677003 0.214795 0.116136
356 1 0.672254 0.252533 0.128035
357 1 0.686526 0.439717 0.234237
358 1 0.691102 0.376015 0.202746
359 1 0.686256 0.213123 0.117547
360 1 0.681501 0.25316 0.13254
361 1 0.695757 0.441083 0.2362
362 1 0.700543 0.380974 0.203074
363 1 0.695594 0.207282 0.116519
364 1 0.690951 0.250865 0.136261
365 1 0.705144 0.448833 0.224412
366 1 0.709733 0.388524 0.200347
367 1 0.705182 0.213913 0.121328
368 1 0.700269 0.243237 0.140681
369 1 0.714482 0.447902 0.236541
370 1 0.719324 0.378773 0.209287
371 1 0.714417 0.207752 0.129439
372 1 0.709861 0.250434 0.13806
373 1 0.724042 0.443546 0.241863
374 1 0.728522 0.369806 0.221129
375 1 0.724013 0.200755 0.151964
376 1 0.719255 0.23863 0.154052
377 1 0.733516 0.426013 0.239761
378 1 0.738168 0.367989 0.214869
379 1 0.733372 0.193111 0.147011
380 1 0.728827 0.232659 0.166267
381 1 0.742683 0.428557 0.237758
382 1 0.747359 0.365266 0.212758
383 1 0.742939 0.181183 0.156593
384 1 0.738253 0.223794 0.168498
385 1 0.75201 0.432265 0.227591
386 1 0.756857 0.376584 0.205039
387 1 0.752231 0.190337 0.150213
388 1 0.74762 0.22413 0.162639
389 1 0.761442 0.441196 0.225116
390 1 0.766057 0.372927 0.208765
391 1 0.761561 0.193383 0.158798
392 1 0.756837 0.230327 0.163421
393 1 0.770778 0.433379 0.234512
394 1 0.775577 0.365938 0.212314
395 1 0.770854 0.186579 0.157364
396 1 0.766195 0.235587 0.164343
397 1 0.780231 0.429879 0.235217
398 1 0.785005 0.368878 0.201752
399 1 0.780302 0.183639 0.153883
400 1 0.775499 0.229044 0.167134
401 1 0.789668 0.431448 0.234212
402 1 0.794356 0.36534 0.207329
403 1 0.789639 0.17993 0.150106
404 1 0.785095 0.221133 0.16391
405 1 0.799066 0.432092 0.224157
406 1 0.803813 0.374878 0.198931
407 1 0.799119 0.19208 0.147296
408 1 0.794337 0.229818 0.159037
409 1 0.808243 0.436253 0.220532
410 1 0.813047 0.366336 0.204862
411 1 0.808442 0.182874 0.14336
412 1 0.803774 0.228507 0.156658
413 1 0.817707 0.435385 0.226348
414 1 0.82266 0.362508 0.221209
415 1 0.817848 0.179866 0.166066
416 1 0.813147 0.222388 0.167486
417 1 0.827247 0.421735 0.245016
418 1 0.83205 0.360418 0.23685
419 1 0.8272 0.174724 0.179182
420 1 0.822532 0.218206 0.180175
421 1 0.836791 0.422828 0.253405
422 1 0.841452 0.355589 0.235536
423 1 0.836512 0.17256 0.192016
424 1 0.831794 0.210773 0.203431
425 1 0.846203 0.421593 0.250058
426 1 0.850686 0.354218 0.233111
427 1 0.845738 0.168065 0.191907
428 1 0.841109 0.210996 0.201856
429 1 0.855231 0.423321 0.236348
430 1 0.860086 0.353035 0.21632
431 1 0.855411 0.159955 0.201223
432 1 0.850741 0.205749 0.203717
433 1 0.864677 0.420916 0.228576
434 1 0.869492 0.347018 0.22811
435 1 0.864756 0.163074 0.217389
436 1 0.86012 0.204584 0.206739
437 1 0.874219 0.42336 0.242343
438 1 0.878921 0.357459 0.232592
439 1 0.874435 0.162081 0.214849
440 1 0.869472 0.199385 0.223105
441 1 0.883638 0.430248 0.24421
442 1 0.888376 0.360368 0.236797
443 1 0.883453 0.169991 0.204722
444 1 0.878829 0.2104 0.217442
445 1 0.892927 0.429451 0.253406
446 1 0.897534 0.360785 0.243565
447 1 0.892762 0.167892 0.223332
448 1 0.888181 0.212001 0.205692
449 1 0.902323 0.427739 0.242347
450 1 0.906967 0.361969 0.227908
451 1 0.902051 0.16936 0.218388
452 1 0.897404 0.215303 0.226656
453 1 0.911525 0.427349 0.241177
454 1 0.916363 0.361786 0.238673
455 1 0.911811 0.177714 0.197215
456 1 0.906771 0.211907 0.208437
457 1 0.920844 0.431269 0.245319
458 1 0.925715 0.368573 0.235371
459 1 0.921156 0.176452 0.206985
460 1 0.916515 0.2138 0.215597
461 1 0.930364 0.433411 0.242661
462 1 0.935095 0.364049 0.239826
463 1 0.930474 0.169504 0.218478
464 1 0.925876 0.216363 0.21473
465 1 0.939613 0.437983 0.248662
466 1 0.944263 0.361857 0.245931
467 1 0.939813 0.166156 0.231535
468 1 0.93512 0.215086 0.232975
469 1 0.949026 0.432794 0.254705
470 1 0.953868 0.370886 0.254559
471 1 0.949179 0.175096 0.224106
472 1 0.944401 0.210173 0.230306
473 1 0.958616 0.431958 0.258093
474 1 0.963238 0.363699 0.250215
475 1 0.95837 0.177013 0.2372
476 1 0.95385 0.223616 0.236415
477 1 0.967962 0.42855 0.265451
478 1 0.972696 0.361846 0.266943
479 1 0.967958 0.166128 0.24137
480 1 0.963314 0.213889 0.232475
481 1 0.977451 0.422519 0.265354
482 1 0.982097 0.356832 0.253865
483 1 0.977385 0.16406 0.253428
484 1 0.972748 0.206405 0.252058
485 1 0.986734 0.42093 0.249691
486 1 0.991262 0.349173 0.245998
487 1 0.986727 0.16455 0.247481
488 1 0.982095 0.208184 0.251744
489 1 0.0130002 0.816029 0.245155
490 1 0.0175569 0.777918 0.246967
491 1 0.0131949 0.558164 0.247513
492 1 0.00864914 0.625657 0.245456
493 1 0.0221636 0.822756 0.242776
494 1 0.0269798 0.785457 0.247382
495 1 0.0224334 0.563138 0.246618
496 1 0.017685 0.629966 0.24937
497 1 0.0316779 0.824629 0.240491
498 1 0.0365829 0.784974 0.235824
499 1 0.0321887 0.562364 0.24789
500 1 0.0272363 0.632605 0.252306
501 1 0.0414619 0.823915 0.226281
502 1 0.0461218 0.786564 0.23007
503 1 0.0414137 0.567167 0.242942
504 1 0.0367556 0.631509 0.237305
505 1 0.0507059 0.832773 0.224254
506 1 0.0557141 0.789809 0.236095
507 1 0.0509211 0.571084 0.245375
508 1 0.0460833 0.637944 0.237254
509 1 0.0602634 0.836136 0.22621
510 1 0.0647815 0.793845 0.225396
511 1 0.0601064 0.568616 0.254267
512 1 0.0554635 0.641195 0.246928
513 1 0.069448 0.834786 0.226168
514 1 0.0744208 0.78979 0.222367
515 1 0.0696156 0.569544 0.246503
516 1 0.0648931 0.641854 0.245823
517 1 0.0787813 0.840444 0.218949
518 1 0.0836354 0.799049 0.220592
519 1 0.0788577 0.572889 0.240172
520 1 0.0742287 0.641025 0.239486
521 1 0.0883535 0.837446 0.216007
522 1 0.0929025 0.803159 0.215232
523 1 0.0881615 0.58417 0.239284
524 1 0.0834126 0.64804 0.227746
525 1 0.0976245 0.849037 0.212196
526 1 0.102355 0.805735 0.219481
527 1 0.0973498 0.588289 0.252224
528 1 0.0927503 0.653092 0.238198
529 1 0.106955 0.843863 0.209522
530 1 0.111496 0.803036 0.208947
531 1 0.107022 0.592069 0.248407
532 1 0.101975 0.656878 0.242784
533 1 0.116356 0.843257 0.201229
534 1 0.121147 0.805084 0.204085
535 1 0.116501 0.595444 0.251302
536 1 0.112027 0.660021 0.238712
537 1 0.125955 0.851272 0.204575
538 1 0.130565 0.810716 0.214562
539 1 0.125895 0.593145 0.243008
540 1 0.121236 0.661214 0.235493
541 1 0.135414 0.848386 0.209364
542 1 0.14 0.801049 0.222747
543 1 0.135149 0.587422 0.248197
544 1 0.13064 0.658501 0.233189
545 1 0.144523 0.84086 0.220937
546 1 0.149157 0.79294 0.228851
547 1 0.144635 0.575175 0.244839
548 1 0.139963 0.650529 0.237472
549 1 0.153976 0.82691 0.214652
550 1 0.158687 0.78694 0.215532
551 1 0.15383 0.574391 0.236241
552 1 0.14929 0.643892 0.235452
553 1 0.163438 0.828277 0.205456
554 1 0.168115 0.784099 0.202509
555 1 0.163382 0.564817 0.236025
556 1 0.15839 0.635173 0.225132
557 1 0.172718 0.829739 0.205367
558 1 0.177384 0.79011 0.206346
559 1 0.172686 0.56607 0.22899
560 1 0.168153 0.636703 0.218275
561 1 0.182017 0.833479 0.197044
562 1 0.186705 0.786453 0.196855
563 1 0.181989 0.567285 0.233302
564 1 0.177298 0.634717 0.217962
565 1 0.191341 0.828879 0.194603
566 1 0.195934 0.785834 0.19367
567 1 0.191279 0.566001 0.225547
568 1 0.186551 0.639756 0.221168
569 1 0.200584 0.823889 0.189423
570 1 0.205228 0.783282 0.205425
571 1 0.200823 0.568142 0.234695
572 1 0.196059 0.633796 0.216216
573 1 0.209935 0.829563 0.200736
574 1 0.214809 0.78897 0.207277
575 1 0.210093 0.576159 0.247478
576 1 0.205377 0.638828 0.229326
577 1 0.219489 0.830086 0.185688
578 1 0.224287 0.783728 0.193933
579 1 0.219519 0.579947 0.258085
580 1 0.214803 0.644708 0.238862
581 1 0.228917 0.820762 0.179372
582 1 0.233681 0.784358 0.180264
583 1 0.22905 0.574332 0.257125
584 1 0.224295 0.646183 0.241819
585 1 0.23855 0.81788 0.155146
586 1 0.243253 0.77326 0.16
587 1 0.238525 0.571808 0.243971
588 1 0.233764 0.640745 0.225508
589 1 0.247938 0.813561 0.141705
590 1 0.252525 0.764429 0.153015
591 1 0.247865 0.568338 0.2377
592 1 0.243289 0.638464 0.214139
593 1 0.25733 0.805741 0.143258
594 1 0.262162 0.76155 0.153737
595 1 0.257249 0.559609 0.227169
596 1 0.252795 0.623657 0.2118
597 1 0.266729 0.791712 0.133899
598 1 0.27163 0.758008 0.143961
599 1 0.266521 0.559355 0.222039
600 1 0.261796 0.621522 0.199245
601 1 0.276063 0.802637 0.122348
602 1 0.281001 0.770747 0.140139
603 1 0.276091 0.561684 0.226288
604 1 0.271349 0.624781 0.19914
605 1 0.285841 0.797302 0.123054
606 1 0.290317 0.751088 0.140267
607 1 0.285418 0.557779 0.224526
608 1 0.28095 0.628592 0.201425
609 1 0.294799 0.796154 0.126785
610 1 0.299354 0.757982 0.147224
611 1 0.294764 0.551283 0.222251
612 1 0.290332 0.615231 0.199157
613 1 0.304049 0.792792 0.122784
614 1 0.308781 0.757895 0.128873
615 1 0.304261 0.558713 0.223741
616 1 0.299427 0.615677 0.20057
617 1 0.31332 0.790531 0.0999754
618 1 0.318223 0.760792 0.115629
619 1 0.31356 0.555205 0.209135
620 1 0.308821 0.622491 0.196133
621 1 0.323277 0.800789 0.11813
622 1 0.328127 0.760517 0.129416
623 1 0.323023 0.558037 0.195609
624 1 0.318159 0.618561 0.174147
625 1 0.332696 0.802776 0.111408
626 1 0.337534 0.76771 0.124467
627 1 0.33266 0.563949 0.212051
628 1 0.327971 0.624432 0.181352
629 1 0.342289 0.806482 0.112031
630 1 0.346849 0.767047 0.1434
631 1 0.342373 0.575683 0.223455
632 1 0.337384 0.630854 0.185286
633 1 0.351607 0.797814 0.122682
634 1 0.356235 0.761784 0.137127
635 1 0.35189 0.57538 0.237279
636 1 0.347055 0.638044 0.204938
637 1 0.360892 0.793188 0.117334
638 1 0.365756 0.763231 0.133062
639 1 0.361171 0.57043 0.233064
640 1 0.356332 0.629258 0.202184
641 1 0.370547 0.795054 0.114308
642 1 0.375346 0.760877 0.130271
643 1 0.370581 0.57488 0.232261
644 1 0.365889 0.633625 0.200926
645 1 0.38014 0.792698 0.111292
646 1 0.384823 0.758294 0.125074
647 1 0.380024 0.566523 0.222597
648 1 0.375348 0.629524 0.199689
649 1 0.389366 0.792756 0.0944026
650 1 0.394001 0.749469 0.110147
651 1 0.389389 0.572525 0.228642
652 1 0.384582 0.63026 0.195629
653 1 0.398905 0.772967 0.0843746
654 1 0.403565 0.730073 0.106931
655 1 0.39859 0.554721 0.215481
656 1 0.394017 0.623347 0.189515
657 1 0.408119 0.768363 0.0862938
658 1 0.41271 0.730138 0.110088
659 1 0.40805 0.553529 0.222134
660 1 0.403328 0.605004 0.178859
661 1 0.417454 0.755218 0.0890655
662 1 0.422194 0.726104 0.113686
663 1 0.417114 0.554622 0.226346
664 1 0.412576 0.61011 0.189548
665 1 0.426968 0.758619 0.0927851
666 1 0.431548 0.72127 0.119979
667 1 0.426761 0.546036 0.239735
668 1 0.422143 0.608291 0.199784
669 1 0.436457 0.748576 0.107642
670 1 0.441404 0.711938 0.136889
671 1 0.436034 0.541396 0.244083
672 1 0.431594 0.605762 0.20848
673 1 0.446255 0.734469 0.120939
674 1 0.450992 0.694686 0.139852
675 1 0.445464 0.523132 0.24849
676 1 0.44091 0.58701 0.213823
677 1 0.455785 0.712504 0.11563
678 1 0.460512 0.671449 0.13715
679 1 0.455042 0.510119 0.257587
680 1 0.450506 0.575226 0.215831
681 1 0.465822 0.682566 0.124949
682 1 0.470521 0.617164 0.152009
683 1 0.464159 0.490458 0.269742
684 1 0.459869 0.551661 0.223068
685 1 0.476017 0.60032 0.156457
686 1 0.481189 0.512535 0.183159
687 1 0.47364 0.450077 0.295245
688 1 0.469137 0.51506 0.238295
689 1 0.486416 0.459598 0.189077
690 1 0.491216 0.385183 0.260281
691 1 0.483381 0.392463 0.367003
692 1 0.478963 0.441061 0.284765
693 1 0.496242 0.369549 0.305171
694 1 0.499786 0.371504 0.396317
695 1 0.491652 0.392759 0.48666
696 1 0.488522 0.394688 0.374678
697 1 0.504502 0.408511 0.450232
698 1 0.507251 0.485549 0.542027
699 1 0.49886 0.448777 0.61864
700 1 0.49671 0.404008 0.506141
701 1 0.511073 0.572191 0.571557
702 1 0.512526 0.686971 0.646345
703 1 0.504643 0.608863 0.729296
704 1 0.503528 0.510438 0.630721
705 1 0.514752 0.81274 0.651307
706 1 0.513808 0.955454 0.607852
707 1 0.507534 0.847575 0.75639
708 1 0.508341 0.704816 0.721659
709 1 0.513179 0.997928 0.481957
710 1 0.509915 0.973305 0.384591
711 1 0.504529 0.981735 0.572277
712 1 0.508938 0.957148 0.660941
713 1 0.509657 0.903435 0.277166
714 1 0.506536 0.835732 0.199067
715 1 0.501132 0.933659 0.353691
716 1 0.50496 0.973561 0.435317
717 1 0.505985 0.737359 0.10821
718 1 0.503056 0.65472 0.0494249
719 1 0.497711 0.793488 0.165757
720 1 0.501617 0.857374 0.237856
721 1 0.502793 0.526069 0.00734693
722 1 0.500027 0.412855 0.00987284
723 1 0.494468 0.600325 0.0137561
724 1 0.498268 0.689982 0.0679072
725 1 0.499816 0.301231 0.0909628
726 1 0.497061 0.221721 0.159924
727 1 0.491416 0.355643 0.02877
728 1 0.495243 0.452994 -0.00401818
729 1 0.496344 0.144793 0.271904
730 1 0.493082 0.109481 0.360737
731 1 0.487976 0.180381 0.196486
732 1 0.492041 0.242643 0.11991
733 1 0.492971 0.0762066 0.485883
734 1 0.490039 0.047378 0.585572
735 1 0.484756 0.0728511 0.392082
736 1 0.488523 0.122472 0.319199
737 1 0.489688 0.0530027 0.713386
738 1 0.48653 0.0602972 0.805887
739 1 0.481497 0.0285287 0.615111
740 1 0.48519 0.0402201 0.527771
741 1 0.48649 0.129494 0.916403
742 1 0.484362 0.24025 0.973962
743 1 0.478489 0.133268 0.819083
744 1 0.482018 0.0560541 0.752348
745 1 0.485899 0.365057 0.998924
746 1 0.486228 0.499296 0.951817
747 1 0.47975 0.384473 0.842618
748 1 0.480132 0.250126 0.900987
749 1 0.489469 0.596788 0.92826
750 1 0.491542 0.649995 0.829709
751 1 0.48491 0.551162 0.727388
752 1 0.483502 0.481851 0.844715
753 1 0.495431 0.710721 0.785446
754 1 0.498372 0.725056 0.68854
755 1 0.492019 0.60872 0.605236
756 1 0.48949 0.604133 0.717595
757 1 0.502229 0.781 0.638849
758 1 0.505657 0.773918 0.554242
759 1 0.500131 0.627109 0.486292
760 1 0.496977 0.648186 0.590216
761 1 0.509864 0.813918 0.512054
762 1 0.514118 0.789789 0.462349
763 1 0.508757 0.631714 0.396701
764 1 0.504878 0.669172 0.472134
765 1 0.518594 0.823433 0.487235
766 1 0.523045 0.777409 0.461743
767 1 0.51807 0.610817 0.351623
768 1 0.513813 0.669477 0.394141
769 1 0.527627 0.799697 0.485666
770 1 0.532072 0.759004 0.459485
771 1 0.52707 0.596379 0.34394
772 1 0.522626 0.655957 0.392899
773 1 0.536657 0.795559 0.472125
774 1 0.541148 0.752864 0.44364
775 1 0.536183 0.584155 0.324284
776 1 0.531765 0.648419 0.370487
777 1 0.545816 0.788578 0.457916
778 1 0.550315 0.74653 0.42904
779 1 0.545345 0.584343 0.30827
780 1 0.54083 0.631787 0.364729
781 1 0.554963 0.776759 0.449864
782 1 0.559688 0.741535 0.425668
783 1 0.554793 0.578572 0.30838
784 1 0.550228 0.633882 0.343688
785 1 0.564252 0.776922 0.447983
786 1 0.569131 0.742292 0.423564
787 1 0.564215 0.571618 0.303423
788 1 0.559492 0.625682 0.343806
789 1 0.57383 0.782132 0.435389
790 1 0.578541 0.747957 0.408948
791 1 0.573729 0.567871 0.301503
792 1 0.568946 0.619967 0.343388
793 1 0.583191 0.787604 0.43107
794 1 0.587862 0.748559 0.410714
795 1 0.58319 0.577028 0.286805
796 1 0.578496 0.631106 0.326701
797 1 0.592675 0.777755 0.43065
798 1 0.597288 0.743951 0.403139
799 1 0.592544 0.578861 0.280254
800 1 0.587799 0.629525 0.326832
801 1 0.601993 0.780105 0.418101
802 1 0.606871 0.74359 0.396151
803 1 0.601894 0.569646 0.282625
804 1 0.597237 0.628661 0.321369
805 1 0.611214 0.776551 0.429018
806 1 0.615925 0.751023 0.4047
807 1 0.611545 0.572985 0.277415
808 1 0.606686 0.626228 0.313118
809 1 0.620684 0.784264 0.433159
810 1 0.625561 0.760576 0.399328
811 1 0.620887 0.583872 0.285276
812 1 0.616114 0.64199 0.315148
813 1 0.630303 0.799243 0.413205
814 1 0.63487 0.766257 0.382113
815 1 0.630144 0.575991 0.281143
816 1 0.625554 0.636229 0.320029
817 1 0.639446 0.802688 0.399387
818 1 0.644211 0.769307 0.376785
819 1 0.639782 0.579135 0.273967
820 1 0.635072 0.637179 0.308784
821 1 0.648906 0.80966 0.40703
822 1 0.653577 0.773339 0.388059
823 1 0.648969 0.573002 0.28843
824 1 0.644251 0.637809 0.308312
825 1 0.658263 0.806994 0.406816
826 1 0.662883 0.767463 0.396634
827 1 0.658333 0.577185 0.288272
828 1 0.653772 0.639032 0.320238
829 1 0.667604 0.800494 0.419707
830 1 0.672322 0.766306 0.398932
831 1 0.667508 0.571831 0.305154
832 1 0.662882 0.640953 0.327708
833 1 0.677087 0.804137 0.411043
834 1 0.681867 0.764851 0.395002
835 1 0.676957 0.57795 0.293291
836 1 0.672249 0.634465 0.329774
837 1 0.68652 0.801624 0.4064
838 1 0.691078 0.76641 0.387149
839 1 0.686474 0.562417 0.299738
840 1 0.681602 0.625654 0.326704
841 1 0.695778 0.807975 0.405909
842 1 0.700395 0.769896 0.387291
843 1 0.69578 0.573053 0.294686
844 1 0.691217 0.632019 0.322049
845 1 0.705184 0.804987 0.405966
846 1 0.710002 0.771553 0.382972
847 1 0.705267 0.580942 0.290378
848 1 0.700673 0.636635 0.32025
849 1 0.71463 0.812957 0.397681
850 1 0.719338 0.777967 0.378895
851 1 0.71449 0.580167 0.291112
852 1 0.710076 0.640482 0.319417
853 1 0.724017 0.818316 0.386395
854 1 0.728779 0.77167 0.375916
855 1 0.724003 0.577306 0.292638
856 1 0.719326 0.64198 0.315305
857 1 0.733519 0.808452 0.374267
858 1 0.738092 0.770753 0.362535
859 1 0.733392 0.565623 0.288392
860 1 0.728643 0.637455 0.31699
861 1 0.74253 0.81084 0.371561
862 1 0.747283 0.778313 0.356773
863 1 0.742649 0.571459 0.291556
864 1 0.738072 0.63708 0.308697
865 1 0.752272 0.811352 0.374385
866 1 0.756913 0.771597 0.362822
867 1 0.752076 0.571534 0.277277
868 1 0.747383 0.634241 0.309232
869 1 0.761558 0.818168 0.375722
870 1 0.766251 0.77637 0.359331
871 1 0.761437 0.575047 0.279326
872 1 0.75674 0.635892 0.304384
873 1 0.771086 0.814845 0.371995
874 1 0.775813 0.777257 0.356879
875 1 0.770857 0.569949 0.285062
876 1 0.76616 0.638143 0.311159
877 1 0.78041 0.819227 0.367903
878 1 0.78509 0.77927 0.351832
879 1 0.780328 0.56773 0.280978
880 1 0.775563 0.634263 0.309962
881 1 0.789787 0.82192 0.360629
882 1 0.794511 0.786213 0.348853
883 1 0.789745 0.566195 0.285548
884 1 0.78502 0.636527 0.303365
885 1 0.799167 0.818322 0.362825
886 1 0.803644 0.774616 0.3425
887 1 0.798983 0.570306 0.271178
888 1 0.794351 0.639584 0.299985
889 1 0.808281 0.817446 0.34903
890 1 0.813108 0.784692 0.327497
891 1 0.808308 0.573537 0.268958
892 1 0.803548 0.636652 0.294372
893 1 0.817775 0.823854 0.333849
894 1 0.822502 0.777896 0.316557
895 1 0.817975 0.571819 0.264815
896 1 0.813044 0.639807 0.285089
897 1 0.827294 0.823312 0.315644
898 1 0.832136 0.784482 0.309906
899 1 0.827302 0.565981 0.273209
900 1 0.822651 0.638998 0.280564
901 1 0.836746 0.825978 0.319706
902 1 0.841462 0.78846 0.307429
903 1 0.836809 0.566853 0.278348
904 1 0.831941 0.631665 0.288707
905 1 0.846146 0.830483 0.309261
906 1 0.85083 0.787684 0.300354
907 1 0.846269 0.568547 0.272366
908 1 0.841448 0.63962 0.288211
909 1 0.855449 0.821434 0.309528
910 1 0.860032 0.778175 0.293643
911 1 0.855439 0.566379 0.263861
912 1 0.850728 0.636967 0.283377