ITEM: TIMESTEP
372000
ITEM: NUMBER OF ATOMS
976
ITEM: BOX BOUNDS ss ss ss
-0.0238218 291.441
-1.20773 8.78193
-2.74227 8.4023
ITEM: ATOMS id type xs ys zs
1 1 0.00434417 0.4057 0.246174
2 1 0.00852595 0.333218 0.246244
3 1 0.00429783 0.122234 0.246219
4 1 9.64196e-05 0.1909 0.246183
5 1 0.00432323 0.831382 0.246188
6 1 0.00851314 0.760944 0.246199
7 1 0.00426766 0.547297 0.246201
8 1 9.71434e-05 0.618127 0.246188
9 1 0.0133209 0.401777 0.249717
10 1 0.018006 0.336454 0.255293
11 1 0.0136123 0.140284 0.253889
12 1 0.00893306 0.177175 0.248091
13 1 0.0227721 0.4055 0.268327
14 1 0.0274924 0.339875 0.269427
15 1 0.0228168 0.140829 0.264361
16 1 0.0181924 0.187576 0.258636
17 1 0.0322512 0.415967 0.263125
18 1 0.0369668 0.353125 0.261653
19 1 0.0323033 0.151925 0.259682
20 1 0.0274394 0.190409 0.267181
21 1 0.0413616 0.42463 0.26427
22 1 0.0461802 0.354739 0.268432
23 1 0.0416011 0.162879 0.264261
24 1 0.0368501 0.204174 0.263511
25 1 0.0509445 0.42552 0.276051
26 1 0.0555055 0.356613 0.279261
27 1 0.0509033 0.162236 0.265741
28 1 0.0463547 0.210949 0.265798
29 1 0.0600321 0.426543 0.289183
30 1 0.0648875 0.357407 0.28545
31 1 0.0603892 0.158791 0.26942
32 1 0.0555583 0.201334 0.271884
33 1 0.0697316 0.422393 0.275674
34 1 0.0741299 0.352452 0.277685
35 1 0.0695853 0.165597 0.271055
36 1 0.06492 0.204911 0.273001
37 1 0.0788937 0.413947 0.283027
38 1 0.083525 0.344824 0.288767
39 1 0.0788706 0.158612 0.276548
40 1 0.0742893 0.204725 0.273495
41 1 0.0882236 0.415675 0.285238
42 1 0.093035 0.345109 0.290404
43 1 0.0886515 0.145033 0.300258
44 1 0.0836559 0.189386 0.290222
45 1 0.0978981 0.41447 0.278183
46 1 0.102551 0.346076 0.278149
47 1 0.097817 0.157708 0.308435
48 1 0.093214 0.196273 0.299331
49 1 0.107222 0.415038 0.27341
50 1 0.112045 0.350587 0.285922
51 1 0.107322 0.160668 0.313298
52 1 0.102605 0.197051 0.301526
53 1 0.116543 0.418967 0.274633
54 1 0.121248 0.344716 0.27831
55 1 0.116603 0.162328 0.318803
56 1 0.111965 0.206486 0.309468
57 1 0.125824 0.409044 0.259686
58 1 0.130483 0.348075 0.278934
59 1 0.125796 0.156841 0.323115
60 1 0.121203 0.204871 0.308892
61 1 0.135275 0.419842 0.268312
62 1 0.139804 0.350973 0.283419
63 1 0.135207 0.168116 0.324728
64 1 0.130495 0.201265 0.306466
65 1 0.144383 0.417583 0.265241
66 1 0.149082 0.352194 0.278742
67 1 0.144399 0.169602 0.326478
68 1 0.139805 0.211575 0.318572
69 1 0.153872 0.421057 0.267151
70 1 0.158657 0.352799 0.282185
71 1 0.153796 0.173065 0.31732
72 1 0.149081 0.205268 0.305672
73 1 0.1632 0.4215 0.27091
74 1 0.168097 0.351834 0.285559
75 1 0.163315 0.162879 0.315656
76 1 0.158468 0.206794 0.312515
77 1 0.172898 0.417658 0.272265
78 1 0.177475 0.343838 0.283146
79 1 0.172799 0.168057 0.328443
80 1 0.168112 0.207444 0.310017
81 1 0.182429 0.409642 0.282241
82 1 0.187086 0.340655 0.29102
83 1 0.182312 0.158254 0.327155
84 1 0.17768 0.199054 0.318714
85 1 0.191958 0.408178 0.281568
86 1 0.196646 0.334426 0.28849
87 1 0.191618 0.146379 0.326154
88 1 0.187037 0.201607 0.323617
89 1 0.201485 0.404484 0.272325
90 1 0.206119 0.336859 0.281507
91 1 0.201158 0.14967 0.32526
92 1 0.196359 0.181816 0.313118
93 1 0.210785 0.401995 0.260389
94 1 0.215625 0.340042 0.283026
95 1 0.210945 0.158231 0.33067
96 1 0.205996 0.191015 0.315846
97 1 0.22037 0.406405 0.2699
98 1 0.225061 0.346164 0.288248
99 1 0.220419 0.152105 0.332406
100 1 0.215655 0.193406 0.317628
101 1 0.22958 0.413689 0.274218
102 1 0.234396 0.350806 0.294896
103 1 0.229836 0.162904 0.33748
104 1 0.225044 0.200053 0.328444
105 1 0.239113 0.416732 0.277872
106 1 0.24368 0.358611 0.294227
107 1 0.239044 0.17556 0.349681
108 1 0.234302 0.205568 0.334871
109 1 0.24816 0.420828 0.265399
110 1 0.253015 0.359978 0.289297
111 1 0.248569 0.179658 0.350356
112 1 0.243693 0.217963 0.339877
113 1 0.257608 0.42914 0.276262
114 1 0.262316 0.367763 0.310224
115 1 0.257715 0.181811 0.364936
116 1 0.253283 0.22233 0.342596
117 1 0.267096 0.434277 0.286424
118 1 0.271896 0.374206 0.320933
119 1 0.267311 0.179714 0.371021
120 1 0.262594 0.221753 0.356704
121 1 0.276655 0.444738 0.300065
122 1 0.281272 0.372871 0.309624
123 1 0.276669 0.186425 0.367053
124 1 0.271968 0.22521 0.354295
125 1 0.285929 0.440517 0.282461
126 1 0.290468 0.374411 0.307298
127 1 0.286271 0.195689 0.372298
128 1 0.281393 0.229988 0.355693
129 1 0.295309 0.432407 0.274135
130 1 0.299705 0.373202 0.301237
131 1 0.295322 0.201089 0.374892
132 1 0.290712 0.238351 0.359563
133 1 0.304379 0.445108 0.278155
134 1 0.309156 0.384577 0.303054
135 1 0.304569 0.206312 0.367782
136 1 0.299909 0.237455 0.358087
137 1 0.313747 0.44757 0.285408
138 1 0.318405 0.387774 0.316969
139 1 0.313685 0.212293 0.37444
140 1 0.309201 0.245322 0.351017
141 1 0.323323 0.441733 0.288042
142 1 0.328017 0.386559 0.319079
143 1 0.323151 0.216303 0.395959
144 1 0.318353 0.253275 0.372111
145 1 0.332744 0.443817 0.289846
146 1 0.337561 0.374796 0.31499
147 1 0.33267 0.213234 0.3983
148 1 0.327922 0.254515 0.379818
149 1 0.342183 0.438571 0.287573
150 1 0.346839 0.377633 0.322807
151 1 0.34204 0.208126 0.400338
152 1 0.3373 0.246014 0.377838
153 1 0.351401 0.439015 0.293624
154 1 0.355991 0.376708 0.324532
155 1 0.351469 0.202011 0.405779
156 1 0.34673 0.241581 0.381713
157 1 0.360665 0.446131 0.303134
158 1 0.365434 0.383713 0.336102
159 1 0.360772 0.208967 0.408709
160 1 0.356047 0.244231 0.389389
161 1 0.370203 0.446392 0.304975
162 1 0.374732 0.381664 0.333169
163 1 0.370279 0.204968 0.417677
164 1 0.365542 0.248658 0.396202
165 1 0.379729 0.435179 0.29449
166 1 0.384299 0.377013 0.327621
167 1 0.379375 0.217505 0.424899
168 1 0.374712 0.25563 0.403668
169 1 0.38905 0.431559 0.292376
170 1 0.393829 0.370014 0.321869
171 1 0.388928 0.207888 0.417344
172 1 0.384158 0.251042 0.40117
173 1 0.398482 0.421958 0.284267
174 1 0.40325 0.363651 0.318407
175 1 0.398478 0.209719 0.412511
176 1 0.393786 0.246491 0.394406
177 1 0.407952 0.417566 0.287204
178 1 0.412674 0.358008 0.328002
179 1 0.407699 0.206571 0.421173
180 1 0.403127 0.244922 0.394125
181 1 0.417227 0.418618 0.301076
182 1 0.421904 0.364355 0.336881
183 1 0.41703 0.208845 0.440514
184 1 0.412431 0.239931 0.409521
185 1 0.426753 0.424574 0.307195
186 1 0.431232 0.36169 0.344156
187 1 0.42635 0.201342 0.436317
188 1 0.421759 0.237979 0.413256
189 1 0.435997 0.410502 0.314663
190 1 0.440739 0.350286 0.348433
191 1 0.43541 0.203852 0.442777
192 1 0.430962 0.237729 0.412587
193 1 0.445555 0.394475 0.319323
194 1 0.450056 0.335027 0.362479
195 1 0.444682 0.184858 0.461323
196 1 0.440193 0.232636 0.431081
197 1 0.454803 0.380817 0.331355
198 1 0.458996 0.313806 0.380602
199 1 0.453823 0.168666 0.470282
200 1 0.44928 0.213217 0.442291
201 1 0.463684 0.368793 0.357638
202 1 0.468121 0.318989 0.407054
203 1 0.463112 0.144623 0.485975
204 1 0.458511 0.19087 0.457919
205 1 0.472805 0.359349 0.390329
206 1 0.47658 0.319763 0.470713
207 1 0.47175 0.167702 0.521872
208 1 0.467633 0.190369 0.472432
209 1 0.481466 0.362468 0.494254
210 1 0.484276 0.350329 0.596352
211 1 0.479056 0.216872 0.64792
212 1 0.475837 0.218921 0.558475
213 1 0.48924 0.389715 0.616318
214 1 0.491616 0.410484 0.727503
215 1 0.485911 0.293058 0.799439
216 1 0.482844 0.274856 0.700155
217 1 0.496245 0.461803 0.738259
218 1 0.497902 0.530008 0.843674
219 1 0.492414 0.407119 0.938808
220 1 0.489701 0.35751 0.845595
221 1 0.501392 0.634448 0.834618
222 1 0.50105 0.769928 0.891042
223 1 0.495733 0.644093 0.994251
224 1 0.495406 0.510237 0.957392
225 1 0.502477 0.880275 0.813379
226 1 0.49863 0.95079 0.748189
227 1 0.494336 0.887112 0.917364
228 1 0.496759 0.779549 0.971301
229 1 0.499369 0.988558 0.618059
230 1 0.495548 0.967962 0.535777
231 1 0.491012 0.966519 0.712054
232 1 0.493986 0.94702 0.808042
233 1 0.496222 0.927862 0.405215
234 1 0.492328 0.881774 0.325187
235 1 0.487831 0.934016 0.489643
236 1 0.490699 0.965663 0.585167
237 1 0.49338 0.815535 0.206031
238 1 0.489575 0.759756 0.135896
239 1 0.484538 0.850834 0.280581
240 1 0.487702 0.897398 0.371401
241 1 0.490022 0.642153 0.0503185
242 1 0.486008 0.556078 0.0203443
243 1 0.4815 0.719124 0.0929317
244 1 0.484591 0.789388 0.166595
245 1 0.486434 0.405293 0.0293357
246 1 0.4827 0.321836 0.0879998
247 1 0.478236 0.479235 0.0175899
248 1 0.480967 0.596871 0.0199856
249 1 0.483258 0.217691 0.184899
250 1 0.479432 0.14065 0.248814
251 1 0.47475 0.264334 0.131692
252 1 0.477523 0.351195 0.0673746
253 1 0.479978 0.0767507 0.363843
254 1 0.476166 0.0203442 0.443279
255 1 0.471547 0.0789594 0.292168
256 1 0.474446 0.154366 0.212263
257 1 0.476967 0.00441453 0.579495
258 1 0.473156 0.0304652 0.666799
259 1 0.468376 -0.0173117 0.501969
260 1 0.471386 0.00769342 0.400595
261 1 0.473961 0.141187 0.762316
262 1 0.472788 0.28075 0.734161
263 1 0.466704 0.166032 0.658335
264 1 0.468019 0.0277426 0.625911
265 1 0.476326 0.393254 0.738363
266 1 0.477366 0.487979 0.634566
267 1 0.470563 0.41122 0.568065
268 1 0.468907 0.301101 0.651801
269 1 0.481928 0.548708 0.623634
270 1 0.484572 0.580855 0.504214
271 1 0.477031 0.566472 0.432417
272 1 0.474233 0.505522 0.530533
273 1 0.48977 0.588228 0.493212
274 1 0.492913 0.589352 0.386479
275 1 0.485736 0.628115 0.306755
276 1 0.481981 0.605998 0.397118
277 1 0.498191 0.584785 0.39559
278 1 0.502299 0.533729 0.306917
279 1 0.49543 0.536617 0.207919
280 1 0.49062 0.60738 0.270604
281 1 0.507302 0.53961 0.323509
282 1 0.511567 0.476478 0.269648
283 1 0.505184 0.395829 0.168192
284 1 0.50021 0.477921 0.20414
285 1 0.516599 0.514302 0.290031
286 1 0.521165 0.447186 0.240547
287 1 0.515159 0.323018 0.144067
288 1 0.510502 0.375373 0.180484
289 1 0.526156 0.497474 0.264052
290 1 0.530643 0.434703 0.219736
291 1 0.525103 0.284771 0.127298
292 1 0.520218 0.334724 0.159647
293 1 0.535562 0.480408 0.24769
294 1 0.540077 0.421806 0.200061
295 1 0.534835 0.267927 0.11394
296 1 0.529991 0.312422 0.141227
297 1 0.544808 0.470157 0.236415
298 1 0.549375 0.417642 0.185726
299 1 0.54446 0.268775 0.085141
300 1 0.539737 0.299758 0.119545
301 1 0.554292 0.466952 0.224028
302 1 0.558962 0.408424 0.176983
303 1 0.554003 0.257714 0.0792422
304 1 0.549391 0.298878 0.0999058
305 1 0.563774 0.459341 0.213762
306 1 0.568399 0.408892 0.1665
307 1 0.563436 0.263112 0.0536579
308 1 0.558794 0.291965 0.0885248
309 1 0.572907 0.463921 0.200935
310 1 0.577913 0.408621 0.161071
311 1 0.572966 0.265094 0.0505936
312 1 0.568126 0.294895 0.075413
313 1 0.582631 0.457925 0.203492
314 1 0.587278 0.400606 0.160586
315 1 0.582434 0.263861 0.0540316
316 1 0.577644 0.291506 0.0764063
317 1 0.592185 0.441913 0.204326
318 1 0.596632 0.385081 0.170981
319 1 0.592019 0.241048 0.0595571
320 1 0.587339 0.286572 0.0777285
321 1 0.601472 0.42912 0.215312
322 1 0.606298 0.372842 0.178312
323 1 0.601439 0.237176 0.0573839
324 1 0.596774 0.272746 0.0863352
325 1 0.611028 0.436034 0.212633
326 1 0.615684 0.379435 0.173471
327 1 0.610854 0.226376 0.0612026
328 1 0.606275 0.260093 0.0846701
329 1 0.620186 0.437476 0.209417
330 1 0.625116 0.384774 0.180404
331 1 0.620496 0.230044 0.0808343
332 1 0.615469 0.258239 0.0922034
333 1 0.629457 0.438401 0.224074
334 1 0.634245 0.380283 0.192827
335 1 0.629632 0.224154 0.0960787
336 1 0.625057 0.259213 0.105763
337 1 0.638832 0.438209 0.217089
338 1 0.643715 0.384353 0.186392
339 1 0.638951 0.219614 0.0954713
340 1 0.634269 0.256235 0.119752
341 1 0.648274 0.445881 0.214582
342 1 0.653198 0.390046 0.188565
343 1 0.648498 0.22264 0.103105
344 1 0.643787 0.254009 0.11624
345 1 0.65779 0.455909 0.209462
346 1 0.66231 0.393018 0.182423
347 1 0.657841 0.227962 0.0978281
348 1 0.652949 0.264713 0.119398
349 1 0.667283 0.445165 0.2244
350 1 0.671921 0.387093 0.194749
351 1 0.667241 0.230956 0.0990612
352 1 0.662491 0.262601 0.113975
353 1 0.676496 0.43779 0.234199
354 1 0.681406 0.382279 0.198375
355 1 0.676397 0.219862 0.112992
356 1 0.67172 0.261057 0.126457
357 1 0.685958 0.443765 0.227144
358 1 0.690669 0.381589 0.1946
359 1 0.68595 0.220345 0.11922
360 1 0.681158 0.253534 0.131857
361 1 0.695378 0.441908 0.227302
362 1 0.700163 0.374712 0.199457
363 1 0.695443 0.207822 0.120485
364 1 0.690733 0.247098 0.133399
365 1 0.704852 0.439053 0.22206
366 1 0.709561 0.376008 0.193733
367 1 0.704914 0.198664 0.128255
368 1 0.700234 0.235405 0.147155
369 1 0.714283 0.43796 0.220778
370 1 0.718751 0.380016 0.195542
371 1 0.714296 0.197441 0.129641
372 1 0.709549 0.235016 0.142185
373 1 0.72347 0.43957 0.22282
374 1 0.728088 0.370049 0.207643
375 1 0.723595 0.194476 0.142108
376 1 0.718968 0.23972 0.145596
377 1 0.732894 0.433386 0.228037
378 1 0.737474 0.369909 0.214033
379 1 0.732978 0.185717 0.158925
380 1 0.728152 0.22956 0.163562
381 1 0.742226 0.429057 0.236807
382 1 0.746799 0.363951 0.230305
383 1 0.742271 0.18352 0.17356
384 1 0.737546 0.22545 0.175653
385 1 0.751872 0.426741 0.245757
386 1 0.756376 0.363386 0.22262
387 1 0.751767 0.179429 0.181668
388 1 0.74695 0.221389 0.192326
389 1 0.761066 0.422869 0.242616
390 1 0.765799 0.358452 0.222811
391 1 0.761026 0.175404 0.167029
392 1 0.756387 0.221045 0.181045
393 1 0.770515 0.425433 0.236856
394 1 0.775096 0.361207 0.22201
395 1 0.770374 0.172779 0.171412
396 1 0.765641 0.208923 0.178569
397 1 0.779798 0.427683 0.241705
398 1 0.784327 0.357948 0.217904
399 1 0.779597 0.170747 0.164108
400 1 0.775094 0.219309 0.179229
401 1 0.7893 0.422387 0.245882
402 1 0.793778 0.364123 0.218913
403 1 0.78929 0.180258 0.154975
404 1 0.784289 0.21771 0.171144
405 1 0.798634 0.421076 0.237504
406 1 0.803372 0.348676 0.235006
407 1 0.798516 0.179294 0.166027
408 1 0.79389 0.225979 0.172813
409 1 0.807874 0.410426 0.254754
410 1 0.812577 0.349229 0.235538
411 1 0.807988 0.160709 0.189151
412 1 0.803319 0.205573 0.197398
413 1 0.817368 0.411445 0.2515
414 1 0.822048 0.340302 0.234032
415 1 0.817494 0.165971 0.191634
416 1 0.812809 0.204123 0.199136
417 1 0.826755 0.406703 0.249928
418 1 0.83143 0.345338 0.245194
419 1 0.826865 0.157548 0.198661
420 1 0.822146 0.197414 0.201245
421 1 0.836107 0.412347 0.25927
422 1 0.840812 0.348257 0.237368
423 1 0.836443 0.157429 0.197139
424 1 0.831581 0.197341 0.209412
425 1 0.845622 0.419972 0.249687
426 1 0.850369 0.354164 0.230245
427 1 0.845601 0.159401 0.187643
428 1 0.841036 0.202413 0.207406
429 1 0.855077 0.424573 0.253223
430 1 0.859791 0.356104 0.245275
431 1 0.855045 0.168056 0.196616
432 1 0.850266 0.208781 0.199701
433 1 0.864473 0.42426 0.258391
434 1 0.869316 0.355952 0.241035
435 1 0.864454 0.17163 0.201952
436 1 0.859815 0.213017 0.206404
437 1 0.873911 0.428948 0.251306
438 1 0.87859 0.358156 0.237105
439 1 0.873887 0.16504 0.2091
440 1 0.869165 0.209706 0.211955
441 1 0.8834 0.426075 0.247661
442 1 0.887911 0.360871 0.240706
443 1 0.883147 0.167843 0.221312
444 1 0.878546 0.206868 0.216233
445 1 0.892716 0.426026 0.25026
446 1 0.897206 0.362309 0.250304
447 1 0.892543 0.174795 0.230123
448 1 0.887873 0.213153 0.227552
449 1 0.902068 0.424411 0.252878
450 1 0.906712 0.353117 0.246719
451 1 0.901987 0.170815 0.228363
452 1 0.897358 0.214184 0.236601
453 1 0.911444 0.422788 0.250012
454 1 0.916134 0.354653 0.24677
455 1 0.911403 0.166421 0.228723
456 1 0.906765 0.207863 0.230716
457 1 0.920997 0.420397 0.254841
458 1 0.925704 0.354109 0.254906
459 1 0.920938 0.160497 0.216731
460 1 0.916119 0.206879 0.22968
461 1 0.930206 0.419624 0.265162
462 1 0.934935 0.351648 0.255427
463 1 0.930196 0.162436 0.2252
464 1 0.92554 0.208823 0.23158
465 1 0.939992 0.418266 0.258988
466 1 0.944541 0.346292 0.248577
467 1 0.939576 0.162356 0.221355
468 1 0.934914 0.205009 0.230315
469 1 0.949344 0.415212 0.254148
470 1 0.953919 0.343137 0.251115
471 1 0.949015 0.152949 0.231793
472 1 0.944372 0.201215 0.2318
473 1 0.958544 0.412571 0.261881
474 1 0.963152 0.342805 0.258176
475 1 0.958386 0.14823 0.235296
476 1 0.95375 0.194151 0.235358
477 1 0.967739 0.421843 0.254482
478 1 0.972788 0.350224 0.248262
479 1 0.967813 0.152117 0.236691
480 1 0.963204 0.19541 0.24281
481 1 0.977427 0.417357 0.257213
482 1 0.98204 0.346627 0.255291
483 1 0.977178 0.155235 0.245566
484 1 0.972557 0.19592 0.241742
485 1 0.986705 0.41075 0.251171
486 1 0.99126 0.338966 0.247527
487 1 0.986699 0.154274 0.24899
488 1 0.982039 0.197924 0.253197
489 1 0.0130785 0.805997 0.246694
490 1 0.0176627 0.767872 0.248483
491 1 0.0132744 0.548035 0.249022
492 1 0.00870128 0.615554 0.246991
493 1 0.0222354 0.816792 0.254572
494 1 0.0270489 0.783377 0.263911
495 1 0.022568 0.552389 0.26722
496 1 0.0177916 0.619864 0.250854
497 1 0.0316417 0.827312 0.275424
498 1 0.0364399 0.782882 0.282042
499 1 0.0318904 0.563514 0.270889
500 1 0.0270424 0.631057 0.26401
501 1 0.0411702 0.829008 0.275156
502 1 0.0460689 0.789381 0.273272
503 1 0.0412145 0.568477 0.268099
504 1 0.0365521 0.633327 0.278545
505 1 0.0507107 0.836265 0.266329
506 1 0.0554015 0.786856 0.261425
507 1 0.050923 0.567495 0.276355
508 1 0.0460068 0.636393 0.272974
509 1 0.0601268 0.829733 0.249305
510 1 0.0649238 0.787347 0.255582
511 1 0.0600521 0.570091 0.285881
512 1 0.0554354 0.638734 0.272674
513 1 0.0695201 0.83217 0.252877
514 1 0.0741112 0.786804 0.260206
515 1 0.0696657 0.568862 0.276386
516 1 0.0648584 0.639578 0.28045
517 1 0.0790092 0.823338 0.248358
518 1 0.0834422 0.776807 0.257961
519 1 0.0790684 0.562459 0.277965
520 1 0.0744958 0.635072 0.271088
521 1 0.0881543 0.819461 0.252967
522 1 0.0929645 0.78029 0.252469
523 1 0.0884374 0.559341 0.275649
524 1 0.0838364 0.62613 0.272566
525 1 0.0976782 0.81906 0.23208
526 1 0.102479 0.780907 0.231727
527 1 0.0976902 0.562097 0.273029
528 1 0.0930764 0.632137 0.271729
529 1 0.107123 0.820419 0.208351
530 1 0.111657 0.776026 0.206212
531 1 0.107169 0.559934 0.259238
532 1 0.102322 0.63075 0.253845
533 1 0.116354 0.811918 0.183382
534 1 0.120789 0.771571 0.197613
535 1 0.116474 0.562776 0.248178
536 1 0.111829 0.627061 0.2429
537 1 0.125419 0.817455 0.184806
538 1 0.130198 0.775399 0.200031
539 1 0.125819 0.556513 0.243923
540 1 0.121123 0.62683 0.231544
541 1 0.13502 0.818691 0.194056
542 1 0.139631 0.778408 0.204219
543 1 0.13504 0.562467 0.246894
544 1 0.130377 0.632834 0.235424
545 1 0.144173 0.81813 0.200907
546 1 0.149117 0.776723 0.21571
547 1 0.144468 0.565164 0.24237
548 1 0.13974 0.632387 0.236002
549 1 0.153775 0.820196 0.211584
550 1 0.158572 0.77989 0.212382
551 1 0.153883 0.563016 0.243837
552 1 0.149069 0.629806 0.236775
553 1 0.163312 0.820202 0.198432
554 1 0.16797 0.773652 0.199136
555 1 0.163247 0.561019 0.245622
556 1 0.158513 0.633001 0.236975
557 1 0.172792 0.807368 0.186367
558 1 0.17764 0.773287 0.19565
559 1 0.173055 0.563822 0.244359
560 1 0.168083 0.626378 0.223043
561 1 0.182461 0.805493 0.173847
562 1 0.187131 0.761815 0.181983
563 1 0.182438 0.559203 0.255296
564 1 0.177732 0.630862 0.242654
565 1 0.191945 0.803963 0.169294
566 1 0.196672 0.757556 0.184937
567 1 0.192091 0.550483 0.245801
568 1 0.187358 0.623447 0.228847
569 1 0.201394 0.797834 0.169038
570 1 0.206083 0.757006 0.178707
571 1 0.201592 0.547013 0.233888
572 1 0.196759 0.613742 0.226147
573 1 0.210731 0.800435 0.171966
574 1 0.21544 0.757052 0.184151
575 1 0.21101 0.545349 0.228766
576 1 0.206235 0.610738 0.213237
577 1 0.220134 0.802111 0.178815
578 1 0.224636 0.759121 0.186052
579 1 0.220391 0.54301 0.229283
580 1 0.215529 0.614261 0.212714
581 1 0.229393 0.79867 0.165365
582 1 0.234332 0.75658 0.174611
583 1 0.22969 0.553388 0.233569
584 1 0.224944 0.614991 0.222184
585 1 0.238995 0.808262 0.159321
586 1 0.243668 0.767078 0.1695
587 1 0.238997 0.554546 0.237027
588 1 0.234259 0.616493 0.213293
589 1 0.248346 0.809938 0.153267
590 1 0.253066 0.770273 0.161834
591 1 0.248271 0.564274 0.229949
592 1 0.243626 0.625502 0.213672
593 1 0.257749 0.810743 0.15165
594 1 0.26238 0.770095 0.166653
595 1 0.25771 0.568662 0.235282
596 1 0.252975 0.631432 0.211243
597 1 0.267012 0.807175 0.149231
598 1 0.271578 0.768141 0.157826
599 1 0.26713 0.565981 0.239723
600 1 0.262457 0.632302 0.215528
601 1 0.276338 0.816466 0.149681
602 1 0.280991 0.777444 0.159918
603 1 0.276461 0.57465 0.24256
604 1 0.271692 0.634915 0.209548
605 1 0.285587 0.821908 0.138859
606 1 0.290391 0.781782 0.161055
607 1 0.285694 0.573564 0.23111
608 1 0.281058 0.638003 0.211993
609 1 0.295001 0.819108 0.156585
610 1 0.299566 0.781526 0.163432
611 1 0.295161 0.571139 0.225456
612 1 0.290355 0.636726 0.206833
613 1 0.30427 0.822932 0.151749
614 1 0.309023 0.779748 0.160411
615 1 0.304345 0.578032 0.229638
616 1 0.299828 0.640931 0.206781
617 1 0.313607 0.814351 0.132427
618 1 0.318216 0.767959 0.139756
619 1 0.313867 0.577362 0.229079
620 1 0.3091 0.638516 0.205
621 1 0.322992 0.809966 0.118261
622 1 0.327888 0.763791 0.130978
623 1 0.323404 0.571456 0.22857
624 1 0.31847 0.634268 0.203115
625 1 0.332592 0.805791 0.111722
626 1 0.337266 0.762025 0.131384
627 1 0.332846 0.570577 0.225099
628 1 0.327912 0.632173 0.195607
629 1 0.342079 0.797737 0.105544
630 1 0.346817 0.764554 0.120811
631 1 0.342009 0.567484 0.216749
632 1 0.337286 0.626612 0.192607
633 1 0.351524 0.794231 0.10487
634 1 0.356087 0.754268 0.124581
635 1 0.351338 0.569658 0.230485
636 1 0.346516 0.627783 0.189664
637 1 0.360731 0.793264 0.100569
638 1 0.365403 0.750677 0.122723
639 1 0.360873 0.57106 0.231958
640 1 0.356107 0.623267 0.193318
641 1 0.37003 0.779678 0.0827455
642 1 0.374737 0.737471 0.101574
643 1 0.370191 0.568221 0.228309
644 1 0.365549 0.627067 0.200188
645 1 0.379501 0.770059 0.0884553
646 1 0.38439 0.736893 0.106875
647 1 0.379691 0.559872 0.222535
648 1 0.374852 0.616984 0.188046
649 1 0.389096 0.770473 0.0865536
650 1 0.39385 0.73568 0.109677
651 1 0.389208 0.556957 0.221156
652 1 0.384371 0.607568 0.184628
653 1 0.398681 0.761703 0.0899169
654 1 0.403245 0.729773 0.112957
655 1 0.398496 0.546987 0.217002
656 1 0.393862 0.613666 0.18802
657 1 0.407957 0.759468 0.0881325
658 1 0.412681 0.718084 0.112404
659 1 0.408117 0.540516 0.220183
660 1 0.403299 0.599761 0.178229
661 1 0.417304 0.754055 0.0976
662 1 0.422209 0.720924 0.115773
663 1 0.417474 0.537454 0.227962
664 1 0.412802 0.591888 0.187176
665 1 0.427171 0.746787 0.0925454
666 1 0.431992 0.713582 0.118274
667 1 0.426806 0.548181 0.239276
668 1 0.422241 0.6031 0.201628
669 1 0.43683 0.736946 0.0968342
670 1 0.441435 0.691814 0.11536
671 1 0.436549 0.531047 0.242878
672 1 0.431886 0.59216 0.208366
673 1 0.446493 0.704116 0.0879436
674 1 0.451304 0.664649 0.117564
675 1 0.445778 0.51368 0.243243
676 1 0.441327 0.572181 0.205864
677 1 0.456312 0.681984 0.103598
678 1 0.461169 0.654071 0.139139
679 1 0.45545 0.490575 0.250962
680 1 0.450831 0.55474 0.205918
681 1 0.466064 0.664384 0.124987
682 1 0.470863 0.613183 0.164814
683 1 0.464631 0.474696 0.274284
684 1 0.46048 0.53559 0.225054
685 1 0.476187 0.599733 0.161748
686 1 0.481434 0.518594 0.193793
687 1 0.474399 0.432796 0.29969
688 1 0.469986 0.495921 0.24445
689 1 0.486582 0.445833 0.215067
690 1 0.490879 0.38959 0.27911
691 1 0.483344 0.399649 0.381909
692 1 0.479592 0.444251 0.291492
693 1 0.495843 0.370846 0.32185
694 1 0.499644 0.381172 0.415397
695 1 0.49178 0.38643 0.505182
696 1 0.488734 0.389545 0.395181
697 1 0.504302 0.420652 0.457217
698 1 0.507063 0.484858 0.552883
699 1 0.498939 0.458608 0.62761
700 1 0.496702 0.404534 0.517525
701 1 0.510692 0.578962 0.588062
702 1 0.512325 0.689836 0.662962
703 1 0.504753 0.614784 0.738375
704 1 0.503544 0.519039 0.642326
705 1 0.514655 0.824701 0.655475
706 1 0.513355 0.961003 0.620693
707 1 0.50713 0.868598 0.753302
708 1 0.508133 0.725539 0.729088
709 1 0.512594 1.01524 0.500728
710 1 0.509491 0.988206 0.397742
711 1 0.504204 0.993548 0.575007
712 1 0.508254 0.963441 0.659268
713 1 0.509494 0.912333 0.285069
714 1 0.506664 0.835515 0.211918
715 1 0.500909 0.925585 0.356361
716 1 0.504536 0.981049 0.437198
717 1 0.506599 0.735164 0.123613
718 1 0.503639 0.654533 0.0612674
719 1 0.497975 0.787491 0.177795
720 1 0.501726 0.851253 0.244126
721 1 0.503132 0.516549 0.0231632
722 1 0.500322 0.397567 0.0275373
723 1 0.494701 0.591712 0.0276398
724 1 0.498605 0.684888 0.0791531
725 1 0.499711 0.280746 0.0980533
726 1 0.496498 0.213657 0.172488
727 1 0.491167 0.357049 0.053152
728 1 0.495301 0.445157 0.0165459
729 1 0.496215 0.155335 0.28159
730 1 0.493402 0.116941 0.372195
731 1 0.487864 0.189661 0.220646
732 1 0.491583 0.244293 0.142981
733 1 0.493143 0.0833632 0.491213
734 1 0.490428 0.0539753 0.585723
735 1 0.484753 0.0795067 0.415113
736 1 0.488568 0.12431 0.338786
737 1 0.490017 0.0629027 0.714591
738 1 0.486811 0.071971 0.806073
739 1 0.481836 0.0248459 0.628166
740 1 0.485442 0.045427 0.541219
741 1 0.486674 0.134562 0.921494
742 1 0.48437 0.235093 0.977073
743 1 0.478435 0.135612 0.823571
744 1 0.482094 0.0632162 0.757154
745 1 0.485762 0.367597 1.00253
746 1 0.485867 0.50259 0.947151
747 1 0.479524 0.382303 0.835009
748 1 0.479996 0.247583 0.90239
749 1 0.488996 0.601291 0.92668
750 1 0.491265 0.66729 0.828884
751 1 0.484469 0.557943 0.732639
752 1 0.482914 0.486505 0.839898
753 1 0.495062 0.732529 0.788407
754 1 0.498083 0.736393 0.694648
755 1 0.49177 0.607926 0.607899
756 1 0.48909 0.615646 0.717841
757 1 0.50195 0.792306 0.641977
758 1 0.50534 0.781342 0.562501
759 1 0.499724 0.631999 0.504482
760 1 0.496545 0.655971 0.599853
761 1 0.5094 0.82772 0.519005
762 1 0.513772 0.809044 0.467915
763 1 0.508612 0.628836 0.412989
764 1 0.504668 0.669268 0.489093
765 1 0.518297 0.843646 0.484621
766 1 0.522853 0.801152 0.455851
767 1 0.517715 0.621311 0.366654
768 1 0.513416 0.681558 0.413242
769 1 0.527433 0.83605 0.472865
770 1 0.53201 0.795762 0.447123
771 1 0.52668 0.617912 0.338281
772 1 0.522208 0.678365 0.387749
773 1 0.536683 0.822705 0.461487
774 1 0.541191 0.770881 0.43611
775 1 0.536022 0.593587 0.335332
776 1 0.531647 0.661301 0.373215
777 1 0.545822 0.802785 0.443531
778 1 0.550486 0.760821 0.423675
779 1 0.54549 0.576266 0.325626
780 1 0.540905 0.643427 0.362743
781 1 0.555117 0.787955 0.448369
782 1 0.559531 0.743082 0.426068
783 1 0.55478 0.58127 0.307955
784 1 0.550265 0.632961 0.355504
785 1 0.564404 0.773128 0.45239
786 1 0.568938 0.738674 0.419013
787 1 0.563987 0.57358 0.294438
788 1 0.559584 0.62424 0.339368
789 1 0.573482 0.766067 0.443688
790 1 0.578267 0.74495 0.409665
791 1 0.573097 0.572818 0.290111
792 1 0.56857 0.626649 0.330652
793 1 0.582967 0.781756 0.426187
794 1 0.587676 0.738425 0.405879
795 1 0.582903 0.570594 0.284727
796 1 0.577935 0.622838 0.324924
797 1 0.592439 0.755774 0.435443
798 1 0.597066 0.720015 0.418569
799 1 0.592154 0.559608 0.28311
800 1 0.587548 0.619662 0.31745
801 1 0.601877 0.751492 0.435281
802 1 0.606558 0.72413 0.40452
803 1 0.601596 0.549532 0.290781
804 1 0.59699 0.604961 0.327956
805 1 0.611108 0.76281 0.428339
806 1 0.615798 0.728218 0.408163
807 1 0.610945 0.556873 0.285081
808 1 0.606383 0.608444 0.321556
809 1 0.620327 0.762096 0.43322
810 1 0.62508 0.728593 0.411916
811 1 0.620331 0.560882 0.283929
812 1 0.615669 0.612905 0.32142
813 1 0.629763 0.769368 0.427025
814 1 0.6344 0.735348 0.408066
815 1 0.629772 0.559865 0.296456
816 1 0.625054 0.616642 0.326793
817 1 0.639058 0.775914 0.417528
818 1 0.643605 0.746566 0.392653
819 1 0.638918 0.566317 0.28345
820 1 0.634292 0.616008 0.326504
821 1 0.648294 0.788166 0.413988
822 1 0.652892 0.758565 0.393834
823 1 0.648389 0.575378 0.278266
824 1 0.643583 0.625191 0.312796
825 1 0.657586 0.790389 0.418163
826 1 0.662306 0.759033 0.396136
827 1 0.657735 0.576252 0.284996
828 1 0.653089 0.634185 0.316004
829 1 0.667155 0.78878 0.416456
830 1 0.671771 0.754051 0.400431
831 1 0.667083 0.568751 0.294036
832 1 0.66241 0.633771 0.319363
833 1 0.676469 0.789137 0.4284
834 1 0.681269 0.749654 0.40597
835 1 0.676469 0.562515 0.309344
836 1 0.671863 0.620346 0.341328
837 1 0.685959 0.789339 0.415788
838 1 0.690508 0.761252 0.384965
839 1 0.685987 0.567475 0.301695
840 1 0.681244 0.621758 0.333882
841 1 0.695193 0.800004 0.39499
842 1 0.699965 0.762915 0.374863
843 1 0.695166 0.567009 0.289968
844 1 0.690592 0.629893 0.324838
845 1 0.704674 0.799044 0.380475
846 1 0.709373 0.761815 0.358571
847 1 0.704793 0.567821 0.285862
848 1 0.700099 0.629109 0.31289
849 1 0.714033 0.813907 0.376008
850 1 0.718882 0.771277 0.363426
851 1 0.714242 0.569288 0.288404
852 1 0.709662 0.627856 0.311656
853 1 0.723524 0.805613 0.37917
854 1 0.728351 0.771238 0.360386
855 1 0.723557 0.572587 0.276586
856 1 0.718804 0.633784 0.305234
857 1 0.733078 0.802423 0.384599
858 1 0.737775 0.760468 0.367871
859 1 0.732958 0.564912 0.283015
860 1 0.728519 0.636437 0.301553
861 1 0.742454 0.805417 0.370421
862 1 0.747213 0.771518 0.34694
863 1 0.742381 0.561942 0.292182
864 1 0.737733 0.619556 0.316544
865 1 0.751831 0.808123 0.366835
866 1 0.756453 0.770499 0.359701
867 1 0.751847 0.564165 0.287964
868 1 0.747054 0.62313 0.312285
869 1 0.761196 0.809116 0.37247
870 1 0.76583 0.769068 0.360082
871 1 0.761191 0.561663 0.288866
872 1 0.75652 0.63136 0.305829
873 1 0.770669 0.811964 0.354216
874 1 0.775344 0.777049 0.33905
875 1 0.7704 0.563608 0.276589
876 1 0.765812 0.62779 0.311208
877 1 0.779929 0.823584 0.342039
878 1 0.784585 0.78311 0.324115
879 1 0.779858 0.567827 0.277313
880 1 0.775143 0.63516 0.295351
881 1 0.789341 0.817771 0.333058
882 1 0.793888 0.772461 0.32488
883 1 0.789042 0.559945 0.285851
884 1 0.784603 0.63432 0.295775
885 1 0.798523 0.812132 0.334663
886 1 0.803319 0.767447 0.328029
887 1 0.798524 0.56251 0.283914
888 1 0.793865 0.630259 0.295783
889 1 0.80811 0.8017 0.336874
890 1 0.812631 0.762116 0.326532
891 1 0.808056 0.555161 0.282178
892 1 0.803192 0.620776 0.298039
893 1 0.817405 0.812079 0.332464
894 1 0.822109 0.776403 0.320289
895 1 0.817517 0.555671 0.280543
896 1 0.81283 0.623247 0.297675
897 1 0.826979 0.812546 0.328987
898 1 0.831605 0.769296 0.328697
899 1 0.826872 0.556264 0.282464
900 1 0.822077 0.62521 0.292156
901 1 0.836209 0.805681 0.344509
902 1 0.840966 0.764212 0.35285
903 1 0.836326 0.55349 0.293704
904 1 0.831523 0.62233 0.301495
905 1 0.845584 0.80314 0.362396
906 1 0.850379 0.780106 0.343099
907 1 0.845571 0.557796 0.298423
908 1 0.841081 0.618593 0.319687
909 1 0.855019 0.824388 0.340794
910 1 0.859658 0.784705 0.322247
911 1 0.855079 0.567728 0.286052
912 1 0.850197 0.628908 0.310687