ITEM: TIMESTEP
60000
ITEM: NUMBER OF ATOMS
1216
ITEM: BOX BOUNDS ss ss ss
-0.0318707 362.655
-1.81761 9.04543
2.06577 13.4894
ITEM: ATOMS id type xs ys zs
1 1 0.00351394 0.45702 0.220215
2 1 0.00687141 0.390264 0.220201
3 1 0.00347266 0.196334 0.220215
4 1 9.94066e-05 0.259458 0.220209
5 1 0.00349808 0.848471 0.220219
6 1 0.00686743 0.783629 0.220175
7 1 0.00345231 0.587211 0.22021
8 1 0.000101008 0.652355 0.22021
9 1 0.0106902 0.450755 0.219076
10 1 0.0143783 0.387032 0.218412
11 1 0.0108004 0.209348 0.220546
12 1 0.00712471 0.246843 0.22046
13 1 0.0179716 0.44989 0.221134
14 1 0.0215413 0.385847 0.223848
15 1 0.0180965 0.208373 0.221813
16 1 0.0144521 0.25033 0.22001
17 1 0.0252643 0.448527 0.225182
18 1 0.0288728 0.390887 0.224351
19 1 0.0254673 0.213142 0.233198
20 1 0.0217755 0.252458 0.230694
21 1 0.0325323 0.460278 0.222635
22 1 0.0363604 0.392529 0.223029
23 1 0.0327098 0.220638 0.224231
24 1 0.0290263 0.256152 0.230674
25 1 0.0398943 0.455358 0.220414
26 1 0.0436262 0.394802 0.221198
27 1 0.0401333 0.213497 0.217857
28 1 0.0364394 0.256147 0.217626
29 1 0.0472256 0.460254 0.226244
30 1 0.0508405 0.398649 0.239018
31 1 0.0473231 0.220992 0.234785
32 1 0.0436476 0.258594 0.226461
33 1 0.0544388 0.463422 0.230524
34 1 0.0581756 0.402952 0.235732
35 1 0.0545748 0.222726 0.248938
36 1 0.0508563 0.264994 0.241088
37 1 0.0618979 0.465047 0.225585
38 1 0.0653488 0.401709 0.230295
39 1 0.0618058 0.223153 0.256546
40 1 0.0581335 0.261953 0.250483
41 1 0.0689025 0.46622 0.225623
42 1 0.0726249 0.409709 0.225337
43 1 0.068988 0.226625 0.263623
44 1 0.0654241 0.26532 0.248492
45 1 0.0762695 0.470376 0.218493
46 1 0.0800209 0.408631 0.228509
47 1 0.0765486 0.231554 0.254804
48 1 0.0727524 0.270711 0.250874
49 1 0.083683 0.476596 0.22213
50 1 0.0874293 0.414883 0.234173
51 1 0.0838943 0.239213 0.267059
52 1 0.0802298 0.276427 0.256298
53 1 0.0909958 0.481776 0.227454
54 1 0.0947652 0.418858 0.231093
55 1 0.0913013 0.243196 0.25827
56 1 0.0874836 0.274763 0.252431
57 1 0.0983903 0.486934 0.233544
58 1 0.102123 0.427287 0.240762
59 1 0.098562 0.243074 0.262468
60 1 0.0949508 0.284087 0.251074
61 1 0.105719 0.49308 0.241528
62 1 0.109269 0.426055 0.249185
63 1 0.105702 0.24382 0.263151
64 1 0.102117 0.287959 0.258445
65 1 0.112976 0.488459 0.245349
66 1 0.116619 0.42443 0.244251
67 1 0.113045 0.244675 0.262279
68 1 0.109308 0.284279 0.261351
69 1 0.120373 0.484825 0.243837
70 1 0.123977 0.422639 0.242002
71 1 0.12033 0.247738 0.256199
72 1 0.116634 0.287408 0.252339
73 1 0.127672 0.486487 0.232202
74 1 0.131428 0.420337 0.239134
75 1 0.1277 0.242646 0.25403
76 1 0.123987 0.284788 0.257874
77 1 0.135062 0.479658 0.247701
78 1 0.138811 0.418328 0.246367
79 1 0.134989 0.239808 0.248777
80 1 0.131342 0.282405 0.248026
81 1 0.142521 0.474711 0.233833
82 1 0.146164 0.40697 0.243953
83 1 0.142305 0.233115 0.24147
84 1 0.138642 0.275988 0.249249
85 1 0.149898 0.473222 0.235232
86 1 0.153588 0.409526 0.24757
87 1 0.149885 0.230191 0.252379
88 1 0.146068 0.270103 0.245619
89 1 0.15717 0.473721 0.249024
90 1 0.160935 0.409464 0.249323
91 1 0.157247 0.232291 0.263287
92 1 0.15362 0.268562 0.262005
93 1 0.164558 0.476023 0.231947
94 1 0.168109 0.411607 0.243667
95 1 0.164547 0.233688 0.27027
96 1 0.160888 0.271677 0.260071
97 1 0.171812 0.479351 0.24062
98 1 0.175546 0.414417 0.254797
99 1 0.171948 0.23659 0.278018
100 1 0.168325 0.275913 0.265572
101 1 0.179186 0.482225 0.255549
102 1 0.182962 0.412906 0.269258
103 1 0.179271 0.238309 0.294937
104 1 0.175657 0.279944 0.276456
105 1 0.186623 0.472531 0.24808
106 1 0.19039 0.412159 0.251139
107 1 0.186615 0.239217 0.299565
108 1 0.183022 0.279788 0.290876
109 1 0.194015 0.478452 0.244995
110 1 0.197836 0.417502 0.260276
111 1 0.194031 0.243665 0.300823
112 1 0.190325 0.278958 0.288317
113 1 0.20145 0.476198 0.236693
114 1 0.205117 0.408272 0.251686
115 1 0.201243 0.24462 0.292083
116 1 0.197599 0.286937 0.291964
117 1 0.208689 0.469369 0.233213
118 1 0.212424 0.409343 0.254689
119 1 0.208753 0.235065 0.301024
120 1 0.205067 0.276653 0.286685
121 1 0.216069 0.469782 0.229301
122 1 0.219906 0.408736 0.251627
123 1 0.216411 0.244225 0.31037
124 1 0.212482 0.275502 0.299496
125 1 0.223636 0.468504 0.236792
126 1 0.227129 0.410969 0.265308
127 1 0.223657 0.243051 0.318852
128 1 0.220069 0.280395 0.293119
129 1 0.230799 0.465778 0.246813
130 1 0.234618 0.400122 0.256615
131 1 0.230922 0.232991 0.313092
132 1 0.227434 0.276926 0.304949
133 1 0.238266 0.462529 0.240605
134 1 0.241918 0.400308 0.268236
135 1 0.238255 0.231399 0.319487
136 1 0.234632 0.269965 0.305306
137 1 0.245563 0.45344 0.24487
138 1 0.24911 0.38753 0.256368
139 1 0.245451 0.224205 0.307885
140 1 0.241832 0.272264 0.309514
141 1 0.252869 0.451634 0.237866
142 1 0.256664 0.39702 0.258947
143 1 0.25297 0.222239 0.298921
144 1 0.249243 0.257632 0.291377
145 1 0.260261 0.455855 0.244321
146 1 0.2641 0.39426 0.259238
147 1 0.260456 0.22445 0.318348
148 1 0.256623 0.263242 0.297122
149 1 0.267691 0.454261 0.237458
150 1 0.27137 0.393011 0.255897
151 1 0.267617 0.225446 0.316534
152 1 0.264012 0.267182 0.305748
153 1 0.275078 0.447202 0.226314
154 1 0.278899 0.390639 0.254405
155 1 0.275016 0.234512 0.3277
156 1 0.27129 0.265548 0.31147
157 1 0.282484 0.453662 0.235144
158 1 0.286052 0.399387 0.274599
159 1 0.282336 0.232178 0.332409
160 1 0.278738 0.263203 0.306574
161 1 0.289639 0.461409 0.244697
162 1 0.2933 0.400831 0.269397
163 1 0.289557 0.233321 0.342437
164 1 0.285925 0.276021 0.327394
165 1 0.296871 0.45787 0.246936
166 1 0.300505 0.400075 0.267374
167 1 0.296961 0.232808 0.331014
168 1 0.293187 0.26869 0.316579
169 1 0.304223 0.458591 0.243914
170 1 0.307865 0.39417 0.262761
171 1 0.304233 0.231536 0.323477
172 1 0.300542 0.273091 0.313069
173 1 0.311633 0.460127 0.243153
174 1 0.315131 0.394676 0.26297
175 1 0.311388 0.223544 0.310233
176 1 0.307805 0.268817 0.308204
177 1 0.318844 0.451637 0.232914
178 1 0.322543 0.396066 0.253328
179 1 0.318843 0.221471 0.307174
180 1 0.315065 0.257547 0.298004
181 1 0.326289 0.45707 0.243081
182 1 0.329907 0.397331 0.265904
183 1 0.326389 0.227578 0.306568
184 1 0.322591 0.265293 0.300316
185 1 0.33351 0.46206 0.254349
186 1 0.337233 0.397415 0.276066
187 1 0.333789 0.225289 0.315532
188 1 0.330115 0.264594 0.296541
189 1 0.340958 0.458534 0.25411
190 1 0.344578 0.396982 0.280662
191 1 0.340877 0.229441 0.342569
192 1 0.337266 0.26784 0.3207
193 1 0.348364 0.460415 0.26088
194 1 0.352004 0.402849 0.277621
195 1 0.348398 0.240743 0.347939
196 1 0.344577 0.270745 0.329705
197 1 0.355649 0.458901 0.249688
198 1 0.359288 0.403818 0.269897
199 1 0.355736 0.251456 0.352469
200 1 0.352019 0.276454 0.332596
201 1 0.362941 0.456485 0.24334
202 1 0.366579 0.401202 0.278282
203 1 0.362939 0.250475 0.36017
204 1 0.359376 0.282527 0.337698
205 1 0.37018 0.460231 0.246611
206 1 0.373737 0.405772 0.284975
207 1 0.37029 0.250684 0.362895
208 1 0.366556 0.287178 0.345261
209 1 0.377433 0.465921 0.260344
210 1 0.381048 0.416989 0.299073
211 1 0.377441 0.246355 0.36299
212 1 0.373812 0.287265 0.345028
213 1 0.384796 0.474221 0.276194
214 1 0.388405 0.415335 0.300565
215 1 0.384745 0.249332 0.36689
216 1 0.38104 0.291402 0.34863
217 1 0.392152 0.463047 0.258022
218 1 0.395784 0.4073 0.27665
219 1 0.391983 0.250548 0.364584
220 1 0.388387 0.293829 0.355408
221 1 0.39939 0.458698 0.254917
222 1 0.403087 0.397782 0.270659
223 1 0.399371 0.242161 0.351279
224 1 0.395689 0.284248 0.338958
225 1 0.406747 0.453338 0.237481
226 1 0.410454 0.397312 0.264982
227 1 0.406636 0.249057 0.35809
228 1 0.402986 0.279335 0.333401
229 1 0.414125 0.454758 0.241663
230 1 0.417703 0.402279 0.280002
231 1 0.41399 0.256179 0.372799
232 1 0.410298 0.282659 0.337832
233 1 0.421397 0.454177 0.249772
234 1 0.42501 0.393344 0.283773
235 1 0.421234 0.255536 0.380816
236 1 0.41766 0.291156 0.356414
237 1 0.428751 0.447552 0.249485
238 1 0.432483 0.383619 0.277927
239 1 0.428641 0.248483 0.377539
240 1 0.424943 0.281278 0.357206
241 1 0.43636 0.436204 0.252345
242 1 0.439859 0.38572 0.300356
243 1 0.435893 0.243635 0.385152
244 1 0.432266 0.27399 0.353717
245 1 0.443536 0.431817 0.272407
246 1 0.447017 0.37473 0.31568
247 1 0.442938 0.230463 0.400895
248 1 0.439566 0.274406 0.372053
249 1 0.450909 0.418836 0.280295
250 1 0.454356 0.358014 0.319986
251 1 0.450283 0.219722 0.40971
252 1 0.446718 0.261569 0.388305
253 1 0.458057 0.402679 0.285518
254 1 0.461529 0.345588 0.329663
255 1 0.457384 0.204462 0.415542
256 1 0.454035 0.245045 0.390966
257 1 0.465317 0.389125 0.301062
258 1 0.468616 0.329924 0.355158
259 1 0.464329 0.198768 0.438964
260 1 0.460983 0.234712 0.400136
261 1 0.472492 0.364669 0.325379
262 1 0.47562 0.304812 0.374861
263 1 0.471306 0.182217 0.473709
264 1 0.467978 0.225489 0.427971
265 1 0.479403 0.342614 0.350582
266 1 0.482629 0.292823 0.413892
267 1 0.478263 0.171741 0.505231
268 1 0.474883 0.204923 0.457976
269 1 0.486463 0.327447 0.40694
270 1 0.489427 0.307391 0.494193
271 1 0.485111 0.189299 0.550746
272 1 0.481805 0.202819 0.492843
273 1 0.49327 0.340735 0.500227
274 1 0.495692 0.339403 0.603178
275 1 0.490911 0.240638 0.672795
276 1 0.488484 0.232153 0.588677
277 1 0.499554 0.375516 0.614798
278 1 0.501274 0.40996 0.721772
279 1 0.496219 0.325499 0.80205
280 1 0.494139 0.28918 0.708656
281 1 0.504766 0.473242 0.725362
282 1 0.505768 0.551894 0.827676
283 1 0.501302 0.44033 0.918632
284 1 0.499538 0.380858 0.833654
285 1 0.508273 0.656732 0.80848
286 1 0.507464 0.782986 0.857982
287 1 0.503544 0.664813 0.973472
288 1 0.503574 0.541803 0.936821
289 1 0.508675 0.888631 0.784149
290 1 0.50541 0.943204 0.724752
291 1 0.501963 0.870777 0.885264
292 1 0.504209 0.781985 0.938212
293 1 0.505747 0.976528 0.594282
294 1 0.50244 0.94762 0.518572
295 1 0.499057 0.933834 0.68635
296 1 0.50166 0.930647 0.77837
297 1 0.502847 0.902255 0.389088
298 1 0.499809 0.847074 0.323643
299 1 0.496231 0.89765 0.482923
300 1 0.498794 0.932606 0.567349
301 1 0.500208 0.786499 0.20805
302 1 0.497145 0.727517 0.144637
303 1 0.493646 0.808286 0.285634
304 1 0.496014 0.848957 0.373385
305 1 0.497572 0.624542 0.0511025
306 1 0.494755 0.528123 0.0239116
307 1 0.491233 0.693274 0.0840136
308 1 0.493309 0.757733 0.169769
309 1 0.495262 0.395431 0.0479606
310 1 0.492396 0.318399 0.104544
311 1 0.488517 0.474427 0.0407014
312 1 0.490796 0.577786 0.0281165
313 1 0.493427 0.230389 0.196987
314 1 0.490664 0.168048 0.275415
315 1 0.486293 0.271935 0.158382
316 1 0.488511 0.353742 0.091182
317 1 0.491678 0.103621 0.388174
318 1 0.488774 0.0466555 0.470501
319 1 0.484786 0.104772 0.322036
320 1 0.4866 0.179371 0.243641
321 1 0.489237 0.0346947 0.600854
322 1 0.486062 0.0617668 0.689918
323 1 0.48266 0.0130059 0.52488
324 1 0.484907 0.0405825 0.430928
325 1 0.48697 0.156988 0.781728
326 1 0.485526 0.289324 0.751922
327 1 0.48084 0.180679 0.675414
328 1 0.482147 0.0525113 0.642696
329 1 0.488229 0.390624 0.75185
330 1 0.489371 0.458367 0.644942
331 1 0.483729 0.398011 0.590051
332 1 0.482287 0.3059 0.676828
333 1 0.493058 0.513142 0.62851
334 1 0.494959 0.539145 0.517615
335 1 0.488958 0.526459 0.447972
336 1 0.4867 0.477711 0.54483
337 1 0.498794 0.559932 0.508669
338 1 0.501148 0.568519 0.401956
339 1 0.49579 0.597863 0.321896
340 1 0.492815 0.568128 0.412199
341 1 0.505338 0.576516 0.394737
342 1 0.508087 0.557421 0.300752
343 1 0.502925 0.550552 0.200924
344 1 0.500041 0.590479 0.280029
345 1 0.51224 0.562094 0.305508
346 1 0.515463 0.510178 0.247594
347 1 0.510566 0.442681 0.149392
348 1 0.507048 0.508878 0.18308
349 1 0.519367 0.539818 0.262433
350 1 0.522891 0.486738 0.214152
351 1 0.517923 0.378695 0.106251
352 1 0.514562 0.427341 0.149914
353 1 0.526547 0.528824 0.240788
354 1 0.530121 0.472647 0.193797
355 1 0.525802 0.342608 0.104704
356 1 0.521966 0.381107 0.126366
357 1 0.533994 0.514131 0.227619
358 1 0.537494 0.454529 0.190494
359 1 0.533176 0.325307 0.0916108
360 1 0.529695 0.365016 0.116404
361 1 0.541366 0.500428 0.221065
362 1 0.544902 0.441919 0.185479
363 1 0.540747 0.303685 0.0847533
364 1 0.537043 0.339771 0.11165
365 1 0.548772 0.493544 0.203045
366 1 0.552258 0.439091 0.169815
367 1 0.548251 0.287865 0.0838985
368 1 0.544461 0.331068 0.109642
369 1 0.556037 0.480969 0.201976
370 1 0.559762 0.42432 0.16691
371 1 0.555771 0.275692 0.0869867
372 1 0.552072 0.315178 0.100839
373 1 0.563406 0.47045 0.205384
374 1 0.567025 0.412381 0.169785
375 1 0.56336 0.272007 0.072454
376 1 0.559758 0.310032 0.0965156
377 1 0.570878 0.468991 0.205132
378 1 0.574544 0.408129 0.172666
379 1 0.570711 0.263263 0.0805457
380 1 0.567039 0.300049 0.0944547
381 1 0.578307 0.459389 0.198872
382 1 0.581871 0.404058 0.168589
383 1 0.578023 0.254886 0.0864107
384 1 0.574385 0.291726 0.102754
385 1 0.585602 0.454462 0.20544
386 1 0.589226 0.400573 0.172892
387 1 0.585421 0.254909 0.0794716
388 1 0.581836 0.291757 0.0993261
389 1 0.592717 0.46064 0.200477
390 1 0.596563 0.411265 0.175635
391 1 0.592925 0.256097 0.0864147
392 1 0.589077 0.286773 0.10473
393 1 0.600013 0.464223 0.208642
394 1 0.60364 0.413465 0.171009
395 1 0.600087 0.260874 0.0897073
396 1 0.596529 0.29355 0.107925
397 1 0.607371 0.465916 0.202055
398 1 0.611038 0.410365 0.168886
399 1 0.60737 0.254987 0.0905793
400 1 0.603773 0.294891 0.107814
401 1 0.614783 0.471322 0.194696
402 1 0.618434 0.413777 0.161804
403 1 0.614711 0.256767 0.0820273
404 1 0.611047 0.291342 0.102245
405 1 0.62191 0.462949 0.202172
406 1 0.625616 0.407357 0.177554
407 1 0.621994 0.253582 0.0879343
408 1 0.618377 0.293251 0.0987036
409 1 0.629337 0.462676 0.206647
410 1 0.633009 0.405848 0.171012
411 1 0.629308 0.250006 0.0929294
412 1 0.625719 0.289666 0.110676
413 1 0.636595 0.45835 0.203224
414 1 0.640269 0.411729 0.167761
415 1 0.636582 0.255357 0.0897923
416 1 0.63293 0.288402 0.110887
417 1 0.644226 0.467739 0.205974
418 1 0.647761 0.412853 0.166799
419 1 0.644061 0.267238 0.0762945
420 1 0.640275 0.292426 0.095614
421 1 0.651466 0.467482 0.198726
422 1 0.655265 0.407345 0.167842
423 1 0.651393 0.269434 0.0663019
424 1 0.647637 0.302111 0.0927049
425 1 0.658895 0.468612 0.198125
426 1 0.662534 0.419398 0.163742
427 1 0.658852 0.262739 0.0795555
428 1 0.655162 0.297568 0.0945525
429 1 0.665994 0.471974 0.197504
430 1 0.669619 0.409772 0.170342
431 1 0.666179 0.275506 0.0681372
432 1 0.662494 0.304383 0.0922982
433 1 0.673555 0.470718 0.188949
434 1 0.677186 0.41466 0.165328
435 1 0.673468 0.263414 0.0784709
436 1 0.669842 0.302112 0.0897205
437 1 0.680869 0.47095 0.196054
438 1 0.684566 0.406021 0.168996
439 1 0.680999 0.25423 0.0931519
440 1 0.677327 0.293599 0.104609
441 1 0.688138 0.465756 0.197273
442 1 0.691892 0.412066 0.17011
443 1 0.688448 0.248975 0.10376
444 1 0.684731 0.282563 0.117647
445 1 0.695629 0.47027 0.195402
446 1 0.699241 0.410752 0.170263
447 1 0.695588 0.250871 0.104076
448 1 0.691935 0.286823 0.119444
449 1 0.702939 0.470372 0.19097
450 1 0.706445 0.419547 0.161127
451 1 0.702915 0.246711 0.104301
452 1 0.699296 0.2866 0.117425
453 1 0.710256 0.481252 0.189334
454 1 0.713846 0.421204 0.165765
455 1 0.710196 0.254416 0.0977302
456 1 0.706615 0.288967 0.113842
457 1 0.7175 0.484683 0.190115
458 1 0.721206 0.425897 0.170008
459 1 0.717443 0.264037 0.108022
460 1 0.71381 0.300012 0.112346
461 1 0.724773 0.484532 0.196316
462 1 0.728562 0.424483 0.174
463 1 0.724879 0.258854 0.108352
464 1 0.721094 0.297122 0.127454
465 1 0.732419 0.482565 0.199228
466 1 0.735919 0.420371 0.18367
467 1 0.732261 0.258193 0.114263
468 1 0.728469 0.295151 0.12637
469 1 0.739622 0.479368 0.203027
470 1 0.743388 0.413996 0.177461
471 1 0.739427 0.250868 0.124106
472 1 0.735915 0.291423 0.145165
473 1 0.746915 0.481768 0.191091
474 1 0.750487 0.420493 0.1677
475 1 0.746806 0.252963 0.109393
476 1 0.743109 0.287654 0.129665
477 1 0.754229 0.483784 0.185697
478 1 0.757923 0.421809 0.171142
479 1 0.754067 0.244214 0.122827
480 1 0.750625 0.287446 0.131451
481 1 0.761597 0.477413 0.193638
482 1 0.765367 0.419676 0.174962
483 1 0.761359 0.249015 0.114531
484 1 0.75781 0.287353 0.129744
485 1 0.768911 0.487927 0.179458
486 1 0.772679 0.4292 0.164201
487 1 0.769041 0.25716 0.110058
488 1 0.765163 0.289141 0.123312
489 1 0.776361 0.491967 0.185587
490 1 0.780013 0.429846 0.168906
491 1 0.776264 0.267733 0.113209
492 1 0.772604 0.302276 0.121709
493 1 0.78375 0.490329 0.183866
494 1 0.787521 0.428833 0.173223
495 1 0.783611 0.263547 0.106048
496 1 0.779959 0.302036 0.125087
497 1 0.790974 0.492569 0.188188
498 1 0.794623 0.429522 0.170137
499 1 0.790982 0.262928 0.112503
500 1 0.787188 0.301631 0.121979
501 1 0.798191 0.492421 0.194462
502 1 0.80189 0.428151 0.184187
503 1 0.798271 0.264901 0.119442
504 1 0.794614 0.30097 0.126714
505 1 0.805532 0.49374 0.198646
506 1 0.809163 0.430442 0.178334
507 1 0.805412 0.267827 0.12655
508 1 0.80187 0.303587 0.136809
509 1 0.812848 0.4836 0.204465
510 1 0.816377 0.417186 0.194167
511 1 0.812581 0.25098 0.144381
512 1 0.809141 0.29968 0.143815
513 1 0.820034 0.476857 0.208447
514 1 0.823807 0.411924 0.197665
515 1 0.820059 0.241015 0.15476
516 1 0.816233 0.281988 0.160779
517 1 0.827381 0.468185 0.215932
518 1 0.831101 0.408954 0.196324
519 1 0.827379 0.240162 0.147954
520 1 0.823725 0.283134 0.159792
521 1 0.834793 0.466307 0.211395
522 1 0.83844 0.4045 0.199007
523 1 0.834763 0.234769 0.159666
524 1 0.831148 0.277264 0.160892
525 1 0.842305 0.46806 0.218404
526 1 0.845948 0.399557 0.211164
527 1 0.842191 0.231561 0.168673
528 1 0.838527 0.272639 0.173683
529 1 0.849673 0.462026 0.220113
530 1 0.853291 0.396903 0.210697
531 1 0.849567 0.227164 0.16894
532 1 0.845816 0.265877 0.180741
533 1 0.857071 0.459086 0.22018
534 1 0.860521 0.39874 0.20386
535 1 0.856877 0.227347 0.166014
536 1 0.853142 0.266624 0.172011
537 1 0.864231 0.459326 0.210548
538 1 0.867874 0.396804 0.204651
539 1 0.864214 0.220975 0.17641
540 1 0.86045 0.262514 0.184468
541 1 0.871621 0.457237 0.204999
542 1 0.875263 0.390165 0.188004
543 1 0.871591 0.217712 0.175272
544 1 0.867958 0.259588 0.184302
545 1 0.878841 0.451342 0.21175
546 1 0.882616 0.38623 0.204334
547 1 0.878962 0.209766 0.17765
548 1 0.875346 0.256199 0.174173
549 1 0.886154 0.449864 0.215047
550 1 0.889969 0.384842 0.216305
551 1 0.88621 0.206243 0.192402
552 1 0.882652 0.247107 0.190018
553 1 0.893636 0.455144 0.22773
554 1 0.897298 0.388112 0.211618
555 1 0.893612 0.209611 0.196188
556 1 0.889884 0.247435 0.200925
557 1 0.901096 0.451618 0.209668
558 1 0.904771 0.392091 0.206504
559 1 0.901064 0.213002 0.180878
560 1 0.897353 0.250105 0.190259
561 1 0.908392 0.456073 0.221322
562 1 0.912036 0.389436 0.214078
563 1 0.90837 0.217333 0.186266
564 1 0.904699 0.259054 0.187498
565 1 0.915617 0.457176 0.220835
566 1 0.91941 0.388096 0.214345
567 1 0.91562 0.215319 0.19325
568 1 0.912045 0.253284 0.194202
569 1 0.92305 0.448733 0.219741
570 1 0.926906 0.383408 0.212373
571 1 0.922953 0.209499 0.195695
572 1 0.919308 0.24971 0.201187
573 1 0.930475 0.446162 0.223054
574 1 0.934138 0.383624 0.215163
575 1 0.930482 0.201119 0.196464
576 1 0.926762 0.244363 0.199794
577 1 0.937768 0.446409 0.215875
578 1 0.941443 0.388162 0.217637
579 1 0.937944 0.210707 0.198658
580 1 0.934095 0.246533 0.20056
581 1 0.945229 0.451299 0.212476
582 1 0.948861 0.38705 0.206412
583 1 0.945269 0.207578 0.194415
584 1 0.941599 0.249513 0.203056
585 1 0.952579 0.453396 0.213271
586 1 0.9562 0.396405 0.211546
587 1 0.952747 0.211774 0.193614
588 1 0.949022 0.247377 0.194881
589 1 0.959981 0.461782 0.216596
590 1 0.96377 0.394507 0.217633
591 1 0.959904 0.217675 0.203007
592 1 0.956221 0.261167 0.200554
593 1 0.967344 0.457913 0.220287
594 1 0.971011 0.39499 0.223315
595 1 0.967298 0.218099 0.219765
596 1 0.963662 0.258443 0.209921
597 1 0.97466 0.454771 0.221661
598 1 0.978389 0.392706 0.224448
599 1 0.97465 0.215792 0.230983
600 1 0.971014 0.257745 0.225073
601 1 0.98199 0.459844 0.220168
602 1 0.985654 0.395962 0.217257
603 1 0.982009 0.220136 0.219844
604 1 0.978372 0.256849 0.225768
605 1 0.989332 0.458662 0.218696
606 1 0.992989 0.394528 0.219853
607 1 0.989406 0.22182 0.219133
608 1 0.985705 0.259603 0.217616
609 1 0.0106233 0.821907 0.217282
610 1 0.014325 0.784195 0.214211
611 1 0.0106988 0.585092 0.218298
612 1 0.00704 0.649173 0.219913
613 1 0.0178616 0.826161 0.22222
614 1 0.0215329 0.781793 0.219694
615 1 0.0179851 0.581616 0.218948
616 1 0.0143763 0.647839 0.215558
617 1 0.0251897 0.832022 0.217531
618 1 0.0289659 0.794791 0.216994
619 1 0.0252715 0.588097 0.225079
620 1 0.0216303 0.647935 0.223956
621 1 0.0326308 0.829805 0.216734
622 1 0.0363865 0.788909 0.219871
623 1 0.0326521 0.592592 0.218575
624 1 0.0290288 0.653983 0.218478
625 1 0.0399449 0.833736 0.211755
626 1 0.043593 0.788554 0.211104
627 1 0.0401032 0.588845 0.221769
628 1 0.0363293 0.658129 0.222565
629 1 0.0471234 0.830907 0.20567
630 1 0.0507669 0.798211 0.19993
631 1 0.0472838 0.594793 0.212687
632 1 0.0436062 0.654074 0.215791
633 1 0.0544468 0.84213 0.193304
634 1 0.058087 0.801026 0.203797
635 1 0.0544751 0.596009 0.211468
636 1 0.0509576 0.660781 0.207975
637 1 0.0617275 0.842814 0.195707
638 1 0.0653104 0.803827 0.192199
639 1 0.0618438 0.598918 0.215575
640 1 0.058119 0.662353 0.211793
641 1 0.0690229 0.836355 0.188931
642 1 0.0726659 0.79783 0.196198
643 1 0.0690442 0.599288 0.20959
644 1 0.0653874 0.668523 0.202222
645 1 0.0763259 0.847511 0.192105
646 1 0.0800305 0.811408 0.195475
647 1 0.0764783 0.605269 0.212031
648 1 0.0727065 0.662488 0.207779
649 1 0.0835487 0.855483 0.198651
650 1 0.087195 0.816772 0.203469
651 1 0.0836102 0.608938 0.220306
652 1 0.080006 0.673507 0.207937
653 1 0.0909818 0.852375 0.197159
654 1 0.0946077 0.816844 0.194037
655 1 0.0910482 0.614473 0.217277
656 1 0.0872005 0.677502 0.20951
657 1 0.0983265 0.858119 0.185196
658 1 0.10203 0.823287 0.196109
659 1 0.0982566 0.618545 0.215669
660 1 0.0945957 0.681556 0.210439
661 1 0.105746 0.862159 0.189464
662 1 0.10939 0.825358 0.198728
663 1 0.10566 0.62542 0.240011
664 1 0.101954 0.688678 0.224595
665 1 0.112992 0.863823 0.205384
666 1 0.116695 0.82402 0.221315
667 1 0.113015 0.626228 0.235006
668 1 0.10928 0.690113 0.23143
669 1 0.120486 0.862689 0.226142
670 1 0.124109 0.820335 0.22286
671 1 0.120387 0.620248 0.235382
672 1 0.116729 0.686099 0.234452
673 1 0.127782 0.865763 0.220496
674 1 0.131526 0.822814 0.223539
675 1 0.127779 0.620005 0.222253
676 1 0.123996 0.682261 0.222777
677 1 0.135336 0.852565 0.220083
678 1 0.138964 0.814029 0.214096
679 1 0.135143 0.618953 0.231083
680 1 0.131469 0.682853 0.225665
681 1 0.14269 0.851543 0.213191
682 1 0.146387 0.810591 0.205068
683 1 0.142416 0.610637 0.217784
684 1 0.138806 0.679766 0.220509
685 1 0.150097 0.849803 0.193885
686 1 0.153742 0.806963 0.197821
687 1 0.149975 0.6066 0.221028
688 1 0.146247 0.671463 0.213984
689 1 0.157377 0.84992 0.193115
690 1 0.161088 0.8104 0.205224
691 1 0.15727 0.60475 0.223116
692 1 0.153674 0.669886 0.209335
693 1 0.164646 0.854527 0.19557
694 1 0.168275 0.811461 0.190644
695 1 0.164555 0.609159 0.217688
696 1 0.160813 0.66836 0.216767
697 1 0.171982 0.85436 0.177284
698 1 0.175626 0.808168 0.187137
699 1 0.171852 0.615743 0.224534
700 1 0.168269 0.676825 0.208659
701 1 0.179285 0.846066 0.174738
702 1 0.18298 0.801429 0.183628
703 1 0.179361 0.611074 0.229164
704 1 0.175665 0.679813 0.218314
705 1 0.186605 0.843251 0.162912
706 1 0.190283 0.802868 0.159727
707 1 0.186695 0.607019 0.222051
708 1 0.183064 0.670126 0.21662
709 1 0.194013 0.835473 0.146206
710 1 0.197736 0.800914 0.16517
711 1 0.194124 0.609643 0.214054
712 1 0.19023 0.670017 0.201072
713 1 0.201553 0.839781 0.154527
714 1 0.205336 0.801642 0.168144
715 1 0.201464 0.609169 0.210731
716 1 0.197663 0.66836 0.200157
717 1 0.208922 0.838405 0.156377
718 1 0.212479 0.791856 0.15447
719 1 0.208863 0.602423 0.197832
720 1 0.205296 0.667005 0.191775
721 1 0.216174 0.829163 0.159597
722 1 0.21981 0.797117 0.165652
723 1 0.21628 0.60008 0.193947
724 1 0.212591 0.658237 0.181325
725 1 0.223448 0.839874 0.148238
726 1 0.227138 0.793895 0.147154
727 1 0.223533 0.596932 0.201193
728 1 0.219939 0.664913 0.187729
729 1 0.230919 0.829095 0.12678
730 1 0.234701 0.78351 0.137765
731 1 0.230848 0.59301 0.210943
732 1 0.22736 0.661331 0.18364
733 1 0.238343 0.809935 0.125297
734 1 0.242007 0.770677 0.141897
735 1 0.238202 0.589263 0.202222
736 1 0.234662 0.652728 0.184839
737 1 0.24574 0.808291 0.129469
738 1 0.249384 0.766785 0.140277
739 1 0.245576 0.576321 0.20418
740 1 0.241932 0.642451 0.183901
741 1 0.253091 0.807421 0.122686
742 1 0.256585 0.771021 0.14467
743 1 0.252807 0.575867 0.196832
744 1 0.249168 0.638653 0.179431
745 1 0.260238 0.812668 0.129154
746 1 0.263937 0.774243 0.133364
747 1 0.260205 0.580584 0.198261
748 1 0.256478 0.63624 0.181193
749 1 0.267526 0.816769 0.128044
750 1 0.271162 0.77546 0.12996
751 1 0.267525 0.578491 0.19369
752 1 0.263923 0.640482 0.177001
753 1 0.27493 0.807837 0.113849
754 1 0.278543 0.767545 0.121482
755 1 0.275007 0.574858 0.180936
756 1 0.271265 0.641095 0.1632
757 1 0.282354 0.800732 0.0933084
758 1 0.285911 0.761095 0.101678
759 1 0.282334 0.575908 0.185158
760 1 0.278587 0.633175 0.161593
761 1 0.289592 0.795948 0.0827238
762 1 0.293124 0.758043 0.101438
763 1 0.289663 0.579458 0.186015
764 1 0.28608 0.636133 0.157239
765 1 0.296739 0.791365 0.0901075
766 1 0.300491 0.762985 0.110751
767 1 0.297018 0.580068 0.19226
768 1 0.293338 0.637361 0.156012
769 1 0.304181 0.80254 0.0920435
770 1 0.307934 0.764059 0.104391
771 1 0.304369 0.583172 0.190361
772 1 0.300668 0.635638 0.172274
773 1 0.311609 0.80669 0.0889657
774 1 0.315302 0.770083 0.114065
775 1 0.311607 0.582858 0.190091
776 1 0.307924 0.6405 0.158533
777 1 0.319027 0.803159 0.1006
778 1 0.322601 0.763075 0.118322
779 1 0.31873 0.580914 0.182423
780 1 0.315231 0.646557 0.167571
781 1 0.326262 0.804923 0.111289
782 1 0.329945 0.771949 0.136861
783 1 0.326115 0.582215 0.20035
784 1 0.322459 0.635318 0.165847
785 1 0.333661 0.81511 0.125666
786 1 0.337378 0.774726 0.143151
787 1 0.333645 0.584239 0.20931
788 1 0.330034 0.642853 0.184772
789 1 0.341029 0.81147 0.136867
790 1 0.344626 0.770584 0.148099
791 1 0.340907 0.586388 0.212165
792 1 0.3373 0.644643 0.191161
793 1 0.348262 0.806255 0.126331
794 1 0.351919 0.767269 0.13192
795 1 0.348257 0.585718 0.214408
796 1 0.34461 0.644466 0.19372
797 1 0.355532 0.80115 0.11293
798 1 0.359157 0.763091 0.113866
799 1 0.355524 0.581304 0.205402
800 1 0.351888 0.638927 0.183131
801 1 0.362952 0.797965 0.0986449
802 1 0.36655 0.766502 0.111678
803 1 0.362823 0.576616 0.191487
804 1 0.35919 0.636401 0.171507
805 1 0.370192 0.79886 0.095024
806 1 0.37379 0.762079 0.117095
807 1 0.37008 0.580944 0.19196
808 1 0.366424 0.640321 0.170317
809 1 0.377499 0.796801 0.0969203
810 1 0.38115 0.76016 0.106097
811 1 0.377305 0.583558 0.197738
812 1 0.373678 0.644323 0.175441
813 1 0.384836 0.7986 0.0856758
814 1 0.388455 0.760345 0.10181
815 1 0.384754 0.584277 0.202092
816 1 0.381077 0.639664 0.166838
817 1 0.392086 0.796264 0.0801829
818 1 0.395756 0.755384 0.0973785
819 1 0.392089 0.580509 0.196043
820 1 0.388387 0.636759 0.168588
821 1 0.399405 0.786989 0.0673415
822 1 0.403134 0.749185 0.0857552
823 1 0.399593 0.578725 0.196258
824 1 0.395776 0.637735 0.164029
825 1 0.406923 0.785504 0.0673129
826 1 0.410593 0.746217 0.0863234
827 1 0.406827 0.575581 0.180345
828 1 0.403133 0.636899 0.155732
829 1 0.414266 0.781302 0.0690457
830 1 0.418124 0.747282 0.0829548
831 1 0.414194 0.572007 0.179231
832 1 0.410403 0.631229 0.15237
833 1 0.421852 0.779416 0.0601165
834 1 0.425545 0.737184 0.0783935
835 1 0.42161 0.56538 0.183206
836 1 0.41795 0.631415 0.157046
837 1 0.429383 0.767694 0.0688408
838 1 0.43307 0.732429 0.088132
839 1 0.429078 0.558567 0.17718
840 1 0.425395 0.616498 0.146284
841 1 0.436799 0.755361 0.0685985
842 1 0.440381 0.714865 0.0961558
843 1 0.436592 0.550384 0.186578
844 1 0.433073 0.613159 0.148581
845 1 0.444103 0.740751 0.0722261
846 1 0.447819 0.699272 0.0965416
847 1 0.443853 0.54582 0.204823
848 1 0.440284 0.599859 0.164946
849 1 0.451497 0.736068 0.0844831
850 1 0.455251 0.700125 0.114708
851 1 0.450952 0.530647 0.20462
852 1 0.447487 0.590861 0.169257
853 1 0.459118 0.727651 0.10712
854 1 0.462586 0.679372 0.128346
855 1 0.458388 0.515944 0.216083
856 1 0.45486 0.578048 0.183323
857 1 0.466567 0.700763 0.121142
858 1 0.4703 0.660712 0.141672
859 1 0.465798 0.500894 0.23197
860 1 0.462269 0.560855 0.186216
861 1 0.474194 0.67232 0.130623
862 1 0.477874 0.620138 0.154286
863 1 0.472993 0.474114 0.251356
864 1 0.469678 0.541636 0.205565
865 1 0.481866 0.63182 0.149895
866 1 0.485451 0.579388 0.189949
867 1 0.480267 0.44184 0.27001
868 1 0.476994 0.511122 0.226499
869 1 0.489397 0.557097 0.20569
870 1 0.493067 0.481634 0.201269
871 1 0.487541 0.401041 0.315245
872 1 0.484401 0.465636 0.252144
873 1 0.49721 0.434923 0.217514
874 1 0.500651 0.398955 0.29005
875 1 0.494809 0.375368 0.392089
876 1 0.491821 0.409373 0.303339
877 1 0.50462 0.402508 0.314577
878 1 0.507594 0.398911 0.408137
879 1 0.501401 0.384968 0.504734
880 1 0.498874 0.38413 0.400824
881 1 0.510948 0.446947 0.451579
882 1 0.512947 0.514503 0.536292
883 1 0.506993 0.468498 0.627459
884 1 0.505292 0.416749 0.514384
885 1 0.515697 0.618867 0.562414
886 1 0.516536 0.734705 0.621897
887 1 0.510942 0.646757 0.716713
888 1 0.510403 0.546136 0.635889
889 1 0.517711 0.861695 0.608349
890 1 0.516421 0.98499 0.560313
891 1 0.512182 0.881897 0.71558
892 1 0.513305 0.748149 0.697803
893 1 0.515807 1.00243 0.432798
894 1 0.513338 0.965145 0.343379
895 1 0.50932 0.979856 0.539124
896 1 0.512687 0.967313 0.618373
897 1 0.513075 0.899711 0.242141
898 1 0.51069 0.828705 0.171123
899 1 0.506496 0.9005 0.336093
900 1 0.509543 0.955783 0.408922
901 1 0.510673 0.742848 0.0855727
902 1 0.508499 0.649307 0.0395621
903 1 0.503966 0.768355 0.164132
904 1 0.506994 0.836086 0.224089
905 1 0.508271 0.526339 0.0010414
906 1 0.506138 0.425134 0.0187423
907 1 0.501466 0.591324 0.0276605
908 1 0.504461 0.681347 0.0666231
909 1 0.506025 0.328365 0.103623
910 1 0.50414 0.254784 0.177485
911 1 0.4992 0.364769 0.0556594