ITEM: TIMESTEP
434000
ITEM: NUMBER OF ATOMS
1216
ITEM: BOX BOUNDS ss ss ss
-0.0318707 376.061
-1.16332 8.52713
1.76282 12.8228
ITEM: ATOMS id type xs ys zs
1 1 0.00338868 0.444802 0.254848
2 1 0.00662647 0.369969 0.254832
3 1 0.00334887 0.152572 0.254848
4 1 9.58631e-05 0.223335 0.25484
5 1 0.00337339 0.883621 0.254852
6 1 0.00662263 0.810932 0.254806
7 1 0.00332925 0.590748 0.254842
8 1 9.7407e-05 0.663774 0.254842
9 1 0.0103091 0.437779 0.25367
10 1 0.0138658 0.366346 0.252985
11 1 0.0104154 0.167161 0.255189
12 1 0.00687074 0.209193 0.2551
13 1 0.0174357 0.438621 0.263239
14 1 0.021165 0.368739 0.272028
15 1 0.0176714 0.156106 0.260853
16 1 0.0139369 0.213102 0.254636
17 1 0.0249821 0.435572 0.267863
18 1 0.0284699 0.363559 0.263484
19 1 0.024791 0.169045 0.26734
20 1 0.0211542 0.209848 0.266759
21 1 0.0320868 0.438698 0.248306
22 1 0.0357562 0.369752 0.244114
23 1 0.0319859 0.168157 0.274087
24 1 0.0284111 0.210638 0.271944
25 1 0.0396471 0.440114 0.24083
26 1 0.0433852 0.364901 0.251726
27 1 0.0395982 0.170362 0.260546
28 1 0.0358059 0.208517 0.255388
29 1 0.0470044 0.438297 0.249688
30 1 0.0506387 0.369718 0.258759
31 1 0.0468986 0.172241 0.265166
32 1 0.0432028 0.211752 0.254304
33 1 0.0544195 0.442172 0.247603
34 1 0.0579151 0.370603 0.246486
35 1 0.0541533 0.165493 0.259424
36 1 0.0506138 0.212761 0.267905
37 1 0.0615664 0.448625 0.245538
38 1 0.0653616 0.375395 0.253846
39 1 0.0616564 0.174425 0.265211
40 1 0.0579539 0.213492 0.252381
41 1 0.0689167 0.450849 0.254926
42 1 0.0726467 0.383824 0.257986
43 1 0.0688708 0.181809 0.274465
44 1 0.0652343 0.221331 0.266435
45 1 0.0763938 0.451739 0.252718
46 1 0.0798833 0.380633 0.261196
47 1 0.0760198 0.183186 0.280385
48 1 0.072416 0.2312 0.272305
49 1 0.0836215 0.448258 0.250187
50 1 0.0873336 0.38196 0.255163
51 1 0.0834369 0.179826 0.279034
52 1 0.0797977 0.223852 0.273549
53 1 0.0908661 0.454174 0.248802
54 1 0.0944495 0.389526 0.268779
55 1 0.0908126 0.187495 0.280276
56 1 0.0871486 0.226618 0.268607
57 1 0.0981438 0.44968 0.256707
58 1 0.101913 0.381201 0.272155
59 1 0.0982026 0.192656 0.286483
60 1 0.0945225 0.236536 0.290249
61 1 0.105679 0.446999 0.258006
62 1 0.109441 0.378852 0.264882
63 1 0.105637 0.18745 0.299308
64 1 0.101979 0.23143 0.287479
65 1 0.112919 0.450775 0.25549
66 1 0.116551 0.379705 0.271096
67 1 0.113137 0.18362 0.304762
68 1 0.109368 0.225247 0.298289
69 1 0.120335 0.451175 0.250268
70 1 0.123977 0.37772 0.272605
71 1 0.120237 0.18617 0.314854
72 1 0.116677 0.231024 0.302502
73 1 0.127753 0.444298 0.263558
74 1 0.131431 0.378605 0.276299
75 1 0.12755 0.184722 0.317964
76 1 0.123759 0.225671 0.3023
77 1 0.135046 0.445003 0.2597
78 1 0.138654 0.371665 0.28257
79 1 0.134888 0.186778 0.33271
80 1 0.131197 0.231723 0.314888
81 1 0.142343 0.449294 0.272392
82 1 0.146001 0.375497 0.290945
83 1 0.142281 0.182356 0.342527
84 1 0.138506 0.22821 0.326191
85 1 0.149587 0.445494 0.272765
86 1 0.153487 0.379281 0.288398
87 1 0.149727 0.195062 0.348423
88 1 0.145988 0.22658 0.332921
89 1 0.157146 0.447288 0.259962
90 1 0.160673 0.376933 0.284998
91 1 0.157052 0.196293 0.349592
92 1 0.153358 0.234827 0.336612
93 1 0.16437 0.444051 0.264004
94 1 0.168144 0.373742 0.28377
95 1 0.164499 0.1869 0.345538
96 1 0.16081 0.231415 0.331263
97 1 0.171771 0.441649 0.267696
98 1 0.17534 0.375483 0.290658
99 1 0.171869 0.187824 0.341756
100 1 0.168233 0.22965 0.329978
101 1 0.179052 0.448846 0.274013
102 1 0.182674 0.383962 0.293898
103 1 0.179123 0.187432 0.333904
104 1 0.175454 0.229352 0.33065
105 1 0.186325 0.454945 0.276054
106 1 0.189958 0.385448 0.289309
107 1 0.186498 0.188368 0.332915
108 1 0.182755 0.232595 0.32906
109 1 0.193643 0.457154 0.27252
110 1 0.197303 0.390725 0.289588
111 1 0.193902 0.199837 0.330174
112 1 0.190118 0.23859 0.322291
113 1 0.200896 0.459044 0.270489
114 1 0.204385 0.390965 0.27989
115 1 0.201175 0.207303 0.325634
116 1 0.197517 0.241126 0.320188
117 1 0.207997 0.455655 0.254402
118 1 0.211693 0.385207 0.277712
119 1 0.208259 0.20274 0.332632
120 1 0.204794 0.245251 0.317242
121 1 0.21535 0.451126 0.25563
122 1 0.219022 0.383104 0.279881
123 1 0.215507 0.202087 0.342249
124 1 0.21185 0.240286 0.327119
125 1 0.222747 0.448642 0.256223
126 1 0.226449 0.380412 0.275158
127 1 0.222545 0.193938 0.335587
128 1 0.219105 0.239004 0.328375
129 1 0.230209 0.444812 0.255565
130 1 0.233653 0.374731 0.28009
131 1 0.229991 0.186984 0.331641
132 1 0.226349 0.235155 0.322425
133 1 0.237551 0.440136 0.270591
134 1 0.241044 0.373529 0.293436
135 1 0.237398 0.180835 0.333638
136 1 0.233627 0.227824 0.31971
137 1 0.244645 0.447628 0.275752
138 1 0.248274 0.379537 0.294898
139 1 0.244773 0.179352 0.335612
140 1 0.241101 0.221971 0.328265
141 1 0.252215 0.438221 0.269355
142 1 0.255909 0.374906 0.295759
143 1 0.251898 0.187276 0.344387
144 1 0.248268 0.229767 0.3337
145 1 0.259465 0.443215 0.276797
146 1 0.263254 0.366764 0.295161
147 1 0.259383 0.183102 0.354313
148 1 0.255605 0.22384 0.336555
149 1 0.267075 0.433882 0.265683
150 1 0.270744 0.369524 0.282545
151 1 0.266848 0.18815 0.365669
152 1 0.26305 0.227787 0.34749
153 1 0.27427 0.432709 0.25964
154 1 0.277881 0.367148 0.278673
155 1 0.274141 0.189973 0.362942
156 1 0.270514 0.230031 0.343079
157 1 0.281532 0.431648 0.262243
158 1 0.285012 0.365991 0.297141
159 1 0.281245 0.181797 0.358618
160 1 0.277706 0.230602 0.344078
161 1 0.288901 0.431901 0.279121
162 1 0.292541 0.364931 0.305802
163 1 0.288654 0.180519 0.357893
164 1 0.28489 0.221482 0.344727
165 1 0.296108 0.436892 0.284084
166 1 0.299801 0.367758 0.307063
167 1 0.295969 0.179248 0.366189
168 1 0.292294 0.2225 0.349381
169 1 0.303248 0.430053 0.275514
170 1 0.306965 0.365425 0.308785
171 1 0.303265 0.182405 0.378511
172 1 0.299642 0.223704 0.359285
173 1 0.310707 0.426811 0.278002
174 1 0.314363 0.362187 0.306219
175 1 0.310667 0.194476 0.388624
176 1 0.306952 0.228958 0.368338
177 1 0.317941 0.430422 0.276307
178 1 0.321706 0.374113 0.305461
179 1 0.31797 0.194122 0.381988
180 1 0.314306 0.23275 0.374471
181 1 0.325386 0.440071 0.282232
182 1 0.329043 0.375336 0.326004
183 1 0.32541 0.196301 0.39267
184 1 0.321714 0.232223 0.367243
185 1 0.332762 0.433606 0.299564
186 1 0.336305 0.374121 0.329745
187 1 0.332721 0.196309 0.398916
188 1 0.329065 0.236524 0.38857
189 1 0.33994 0.435394 0.306145
190 1 0.343685 0.380685 0.343005
191 1 0.340163 0.195584 0.415837
192 1 0.336446 0.23356 0.390419
193 1 0.347373 0.436956 0.306767
194 1 0.350972 0.376807 0.335555
195 1 0.347287 0.2101 0.431163
196 1 0.343747 0.244016 0.403936
197 1 0.354581 0.438181 0.304512
198 1 0.358365 0.378026 0.337211
199 1 0.354373 0.21084 0.432122
200 1 0.350861 0.247971 0.411383
201 1 0.362045 0.429794 0.300543
202 1 0.365628 0.361651 0.332974
203 1 0.361757 0.199559 0.426073
204 1 0.358075 0.243347 0.410091
205 1 0.369239 0.421621 0.293567
206 1 0.372898 0.360711 0.325767
207 1 0.36933 0.194992 0.420305
208 1 0.365569 0.230087 0.404761
209 1 0.376563 0.417299 0.294311
210 1 0.380202 0.363139 0.330758
211 1 0.376689 0.191903 0.417356
212 1 0.372889 0.224242 0.393175
213 1 0.383902 0.424034 0.301816
214 1 0.387623 0.369211 0.332964
215 1 0.383877 0.193342 0.415011
216 1 0.38022 0.230903 0.395799
217 1 0.39129 0.431127 0.308597
218 1 0.395203 0.369893 0.342575
219 1 0.391297 0.205408 0.442549
220 1 0.387558 0.235546 0.403774
221 1 0.398634 0.429998 0.309258
222 1 0.402391 0.378297 0.342438
223 1 0.398674 0.218195 0.449603
224 1 0.394975 0.24762 0.424618
225 1 0.405917 0.435577 0.305577
226 1 0.409636 0.378624 0.337213
227 1 0.405954 0.224507 0.448472
228 1 0.402247 0.254392 0.429298
229 1 0.413296 0.439302 0.301291
230 1 0.416932 0.382437 0.341129
231 1 0.413176 0.226125 0.442968
232 1 0.409487 0.256344 0.416518
233 1 0.420617 0.441409 0.304624
234 1 0.424279 0.386698 0.34233
235 1 0.420447 0.225722 0.444344
236 1 0.416846 0.261614 0.424449
237 1 0.427931 0.438489 0.300201
238 1 0.431546 0.378539 0.340808
239 1 0.427823 0.222991 0.450021
240 1 0.424187 0.261702 0.421866
241 1 0.435184 0.428771 0.299276
242 1 0.438735 0.368691 0.335942
243 1 0.435101 0.227537 0.456343
244 1 0.431282 0.259107 0.429782
245 1 0.442616 0.42155 0.296814
246 1 0.446116 0.365777 0.341833
247 1 0.442388 0.223014 0.456592
248 1 0.438813 0.25965 0.430758
249 1 0.449843 0.417083 0.29768
250 1 0.453459 0.357707 0.335457
251 1 0.449654 0.214167 0.456959
252 1 0.446108 0.244509 0.433373
253 1 0.457281 0.419956 0.30214
254 1 0.46077 0.360641 0.348906
255 1 0.456864 0.194841 0.443489
256 1 0.453148 0.237711 0.427796
257 1 0.464558 0.406813 0.315865
258 1 0.468097 0.350881 0.367929
259 1 0.464081 0.203638 0.468421
260 1 0.460487 0.235397 0.430493
261 1 0.47178 0.398115 0.328833
262 1 0.475205 0.342419 0.380207
263 1 0.471341 0.193278 0.482993
264 1 0.467748 0.229532 0.453183
265 1 0.478828 0.390987 0.356666
266 1 0.482431 0.32936 0.403489
267 1 0.478363 0.177962 0.483281
268 1 0.474975 0.218694 0.460414
269 1 0.486256 0.379175 0.403016
270 1 0.489284 0.338848 0.482407
271 1 0.485428 0.187755 0.522704
272 1 0.482028 0.210003 0.473983
273 1 0.493203 0.37028 0.492198
274 1 0.495543 0.360565 0.593965
275 1 0.491288 0.227989 0.649661
276 1 0.488677 0.235929 0.567654
277 1 0.499397 0.400743 0.60797
278 1 0.50147 0.413383 0.718408
279 1 0.496853 0.302051 0.793727
280 1 0.494503 0.274949 0.696641
281 1 0.504872 0.477487 0.7288
282 1 0.506267 0.5408 0.835941
283 1 0.50165 0.41606 0.931471
284 1 0.499994 0.360451 0.832036
285 1 0.509131 0.642573 0.831362
286 1 0.508678 0.775811 0.889158
287 1 0.504238 0.660491 0.994006
288 1 0.504136 0.521984 0.945502
289 1 0.509956 0.892374 0.811517
290 1 0.507212 0.971201 0.741333
291 1 0.503609 0.897801 0.905643
292 1 0.50543 0.794466 0.96039
293 1 0.507618 0.995006 0.611612
294 1 0.504673 0.976567 0.522489
295 1 0.501358 0.984208 0.699851
296 1 0.5036 0.972455 0.79617
297 1 0.505176 0.932982 0.393793
298 1 0.502259 0.890954 0.315274
299 1 0.498687 0.953066 0.479116
300 1 0.50106 0.970921 0.574889
301 1 0.502656 0.82217 0.194924
302 1 0.499577 0.764793 0.119259
303 1 0.496173 0.870382 0.269643
304 1 0.49853 0.909225 0.361651
305 1 0.499977 0.651467 0.0337756
306 1 0.496988 0.553142 0.00934907
307 1 0.493366 0.722983 0.0870147
308 1 0.495798 0.800811 0.157947
309 1 0.497272 0.396471 0.0161715
310 1 0.494207 0.309025 0.0645488
311 1 0.490747 0.491496 0.0133015
312 1 0.493058 0.603405 0.00918274
313 1 0.494532 0.219488 0.173533
314 1 0.491489 0.157958 0.251638
315 1 0.488271 0.275329 0.112952
316 1 0.490606 0.359891 0.0527829
317 1 0.491964 0.0878628 0.372577
318 1 0.488957 0.0360241 0.449009
319 1 0.485409 0.1002 0.281527
320 1 0.487856 0.172993 0.209393
321 1 0.489211 0.0183285 0.588033
322 1 0.486161 0.0591471 0.672661
323 1 0.482775 -0.00234759 0.503002
324 1 0.485183 0.0232356 0.398795
325 1 0.487116 0.161091 0.766538
326 1 0.486506 0.314034 0.73464
327 1 0.481597 0.202863 0.661668
328 1 0.482203 0.0565596 0.625933
329 1 0.489412 0.41386 0.729332
330 1 0.490336 0.516729 0.63209
331 1 0.484465 0.446908 0.580042
332 1 0.483342 0.333342 0.657042
333 1 0.493838 0.57516 0.611262
334 1 0.49549 0.61988 0.491285
335 1 0.489728 0.602512 0.439244
336 1 0.487493 0.534666 0.538487
337 1 0.499371 0.629467 0.483676
338 1 0.502236 0.614023 0.378224
339 1 0.496417 0.645153 0.294622
340 1 0.493404 0.647677 0.382854
341 1 0.506229 0.59855 0.375598
342 1 0.509193 0.540316 0.290915
343 1 0.50368 0.551595 0.195174
344 1 0.500212 0.616796 0.261604
345 1 0.513331 0.538713 0.302475
346 1 0.516963 0.473427 0.241696
347 1 0.511576 0.385168 0.155461
348 1 0.507445 0.477471 0.185327
349 1 0.520771 0.510716 0.265968
350 1 0.524073 0.443065 0.215764
351 1 0.51959 0.318117 0.127009
352 1 0.515585 0.379363 0.147329
353 1 0.527962 0.483823 0.248344
354 1 0.531626 0.425102 0.206801
355 1 0.527059 0.285538 0.0904693
356 1 0.523421 0.338456 0.128049
357 1 0.535486 0.473281 0.236855
358 1 0.538938 0.415154 0.196473
359 1 0.534964 0.265703 0.0888066
360 1 0.531302 0.306272 0.119086
361 1 0.54287 0.469848 0.230285
362 1 0.546484 0.410112 0.19289
363 1 0.5426 0.243169 0.100753
364 1 0.538794 0.282528 0.116229
365 1 0.550218 0.463873 0.234603
366 1 0.553997 0.397941 0.203361
367 1 0.549835 0.239541 0.0997221
368 1 0.546277 0.282277 0.120237
369 1 0.557669 0.455416 0.241275
370 1 0.561268 0.393092 0.202454
371 1 0.557526 0.234825 0.10291
372 1 0.553688 0.264764 0.129032
373 1 0.565091 0.454965 0.231467
374 1 0.568542 0.393222 0.198385
375 1 0.56481 0.231561 0.110123
376 1 0.561148 0.267314 0.127799
377 1 0.572148 0.449581 0.224607
378 1 0.575892 0.385344 0.194556
379 1 0.572005 0.216249 0.105168
380 1 0.568363 0.262343 0.132488
381 1 0.579679 0.449987 0.209625
382 1 0.583298 0.382855 0.18527
383 1 0.579462 0.203758 0.11369
384 1 0.575731 0.24622 0.128118
385 1 0.586991 0.438015 0.214076
386 1 0.59072 0.377747 0.17585
387 1 0.586835 0.207334 0.100259
388 1 0.583175 0.245296 0.124436
389 1 0.594327 0.441379 0.211399
390 1 0.597991 0.384662 0.175243
391 1 0.594428 0.204593 0.0885444
392 1 0.590738 0.239216 0.110212
393 1 0.601635 0.442291 0.208787
394 1 0.605284 0.38465 0.177583
395 1 0.601662 0.225858 0.0804158
396 1 0.597946 0.253307 0.103629
397 1 0.608979 0.436022 0.209215
398 1 0.612642 0.37064 0.177382
399 1 0.608799 0.202638 0.0954065
400 1 0.605356 0.25459 0.104555
401 1 0.616253 0.425545 0.213629
402 1 0.619764 0.358092 0.18146
403 1 0.616172 0.187892 0.098044
404 1 0.612527 0.236971 0.115233
405 1 0.623473 0.417554 0.210939
406 1 0.627143 0.359183 0.173946
407 1 0.623603 0.184086 0.0983019
408 1 0.619956 0.216313 0.121924
409 1 0.630861 0.418091 0.208182
410 1 0.634676 0.354162 0.191156
411 1 0.631118 0.181905 0.0912101
412 1 0.627274 0.221978 0.102967
413 1 0.638382 0.419149 0.216032
414 1 0.642188 0.365843 0.179308
415 1 0.63839 0.18863 0.0944503
416 1 0.634729 0.21882 0.117094
417 1 0.645707 0.42845 0.214684
418 1 0.649343 0.365261 0.187766
419 1 0.64578 0.185425 0.109019
420 1 0.64202 0.228528 0.113008
421 1 0.652843 0.434463 0.219554
422 1 0.656463 0.369561 0.191493
423 1 0.65296 0.183714 0.120918
424 1 0.649433 0.223532 0.140141
425 1 0.660019 0.437156 0.221423
426 1 0.66381 0.374998 0.196779
427 1 0.660242 0.197449 0.123325
428 1 0.65656 0.229358 0.137242
429 1 0.667471 0.438082 0.224751
430 1 0.671192 0.377504 0.192568
431 1 0.667545 0.197403 0.118641
432 1 0.664002 0.231163 0.139871
433 1 0.674793 0.439476 0.210495
434 1 0.678434 0.377666 0.186911
435 1 0.674698 0.195283 0.116701
436 1 0.671072 0.237441 0.136923
437 1 0.682045 0.436637 0.214437
438 1 0.68571 0.373781 0.191339
439 1 0.682084 0.195533 0.114106
440 1 0.678477 0.235263 0.132229
441 1 0.6893 0.436165 0.222712
442 1 0.693 0.367903 0.198307
443 1 0.689263 0.204125 0.108211
444 1 0.685702 0.236532 0.132224
445 1 0.696538 0.441888 0.216767
446 1 0.700095 0.372864 0.192885
447 1 0.696708 0.198931 0.121976
448 1 0.693079 0.23942 0.127496
449 1 0.703733 0.441724 0.215984
450 1 0.70746 0.375405 0.186072
451 1 0.703835 0.194728 0.118169
452 1 0.700284 0.23698 0.134695
453 1 0.711255 0.442062 0.211747
454 1 0.71478 0.379206 0.184311
455 1 0.711232 0.198393 0.114668
456 1 0.707608 0.232989 0.128575
457 1 0.718581 0.439073 0.222438
458 1 0.722267 0.373363 0.196435
459 1 0.718682 0.19836 0.111808
460 1 0.71496 0.239367 0.129258
461 1 0.725947 0.438063 0.227741
462 1 0.729708 0.372818 0.19652
463 1 0.726047 0.19696 0.128646
464 1 0.722408 0.234735 0.133972
465 1 0.733354 0.443631 0.221229
466 1 0.737083 0.379507 0.194545
467 1 0.733503 0.201447 0.126255
468 1 0.729726 0.237469 0.13923
469 1 0.740886 0.453947 0.21038
470 1 0.744577 0.385233 0.185872
471 1 0.740984 0.195639 0.128003
472 1 0.737319 0.238955 0.139128
473 1 0.748077 0.457697 0.198585
474 1 0.751713 0.392778 0.181806
475 1 0.748257 0.1967 0.128405
476 1 0.744569 0.23725 0.148073
477 1 0.755593 0.455721 0.215681
478 1 0.759264 0.383962 0.19831
479 1 0.755542 0.204616 0.123769
480 1 0.751906 0.241312 0.1376
481 1 0.762953 0.452692 0.22412
482 1 0.766511 0.388164 0.20218
483 1 0.762654 0.199797 0.129991
484 1 0.759081 0.243865 0.148495
485 1 0.770243 0.449146 0.227538
486 1 0.77382 0.37988 0.210248
487 1 0.770168 0.198923 0.142716
488 1 0.766488 0.236665 0.153443
489 1 0.777601 0.439469 0.240884
490 1 0.781169 0.370829 0.21582
491 1 0.777407 0.189083 0.160112
492 1 0.773792 0.232526 0.168068
493 1 0.784883 0.431671 0.241172
494 1 0.788562 0.358812 0.224885
495 1 0.784697 0.179307 0.157984
496 1 0.781131 0.22743 0.169971
497 1 0.792182 0.432663 0.248199
498 1 0.795875 0.367998 0.227637
499 1 0.792255 0.183455 0.166775
500 1 0.788388 0.211867 0.178642
501 1 0.799363 0.442533 0.237406
502 1 0.803172 0.378013 0.216628
503 1 0.799407 0.183112 0.172513
504 1 0.795769 0.223009 0.183644
505 1 0.806898 0.441156 0.2425
506 1 0.810509 0.376868 0.232828
507 1 0.807054 0.179223 0.180776
508 1 0.803227 0.224442 0.182648
509 1 0.814221 0.4417 0.250541
510 1 0.818105 0.371843 0.241777
511 1 0.814427 0.183842 0.197491
512 1 0.810638 0.222685 0.20336
513 1 0.821564 0.444259 0.245052
514 1 0.825228 0.376586 0.229488
515 1 0.821719 0.175466 0.213202
516 1 0.81818 0.22257 0.219117
517 1 0.828817 0.44688 0.235148
518 1 0.832488 0.377545 0.216635
519 1 0.82879 0.17793 0.205591
520 1 0.825304 0.220911 0.215629
521 1 0.836157 0.448231 0.222885
522 1 0.839855 0.370991 0.212678
523 1 0.835975 0.183806 0.199671
524 1 0.83243 0.220617 0.204447
525 1 0.843533 0.437763 0.226483
526 1 0.847147 0.374407 0.228827
527 1 0.843472 0.174145 0.201848
528 1 0.839674 0.21957 0.203788
529 1 0.850884 0.443616 0.242608
530 1 0.854423 0.365939 0.230762
531 1 0.850777 0.17216 0.202664
532 1 0.847259 0.217769 0.207656
533 1 0.858137 0.439033 0.232786
534 1 0.86187 0.366536 0.2266
535 1 0.858101 0.165169 0.210524
536 1 0.854377 0.208771 0.213754
537 1 0.865341 0.437912 0.247135
538 1 0.868971 0.372328 0.235924
539 1 0.865488 0.173709 0.204428
540 1 0.861741 0.212187 0.210249
541 1 0.872714 0.442014 0.236814
542 1 0.876373 0.371651 0.239103
543 1 0.872727 0.178115 0.20954
544 1 0.869068 0.219586 0.211214
545 1 0.879836 0.444605 0.245545
546 1 0.883509 0.367394 0.246309
547 1 0.88002 0.175891 0.211305
548 1 0.876382 0.221491 0.218976
549 1 0.887281 0.441857 0.256607
550 1 0.890713 0.372057 0.247569
551 1 0.887248 0.175582 0.225706
552 1 0.883539 0.219011 0.225763
553 1 0.894452 0.445165 0.251132
554 1 0.898067 0.375422 0.240692
555 1 0.894584 0.180262 0.22815
556 1 0.890927 0.224284 0.232089
557 1 0.901755 0.441019 0.249825
558 1 0.905479 0.372464 0.247534
559 1 0.901801 0.178724 0.227793
560 1 0.898192 0.228917 0.231301
561 1 0.909203 0.446996 0.250555
562 1 0.912775 0.377901 0.23662
563 1 0.909296 0.176127 0.223136
564 1 0.905626 0.214374 0.230822
565 1 0.91653 0.446825 0.238764
566 1 0.920395 0.37363 0.232632
567 1 0.916573 0.181687 0.226318
568 1 0.912828 0.22465 0.223686
569 1 0.924041 0.445727 0.231568
570 1 0.927618 0.375732 0.225413
571 1 0.923916 0.175985 0.21631
572 1 0.920219 0.2223 0.227008
573 1 0.931305 0.446624 0.228965
574 1 0.934896 0.37813 0.221079
575 1 0.931388 0.178582 0.198355
576 1 0.927638 0.219475 0.213075
577 1 0.938663 0.446421 0.237362
578 1 0.942309 0.374978 0.235101
579 1 0.938591 0.176833 0.20159
580 1 0.935008 0.223145 0.206453
581 1 0.945999 0.453086 0.238482
582 1 0.949694 0.380142 0.235427
583 1 0.946057 0.188859 0.213434
584 1 0.942316 0.22381 0.212489
585 1 0.953503 0.443958 0.238357
586 1 0.957077 0.375695 0.246506
587 1 0.953394 0.179824 0.228112
588 1 0.949803 0.230532 0.220376
589 1 0.960659 0.447049 0.257269
590 1 0.964483 0.379642 0.251893
591 1 0.9607 0.182515 0.236575
592 1 0.956978 0.220499 0.236821
593 1 0.968135 0.446307 0.254973
594 1 0.971849 0.377542 0.260422
595 1 0.968154 0.185727 0.240687
596 1 0.964495 0.227748 0.239908
597 1 0.97536 0.451693 0.267968
598 1 0.979081 0.381969 0.256134
599 1 0.975421 0.182879 0.24658
600 1 0.971724 0.228519 0.246054
601 1 0.982776 0.450887 0.251292
602 1 0.986365 0.376356 0.251792
603 1 0.982684 0.183212 0.257092
604 1 0.979026 0.228469 0.252835
605 1 0.989912 0.446643 0.253278
606 1 0.993439 0.374748 0.254473
607 1 0.989983 0.181142 0.253729
608 1 0.986414 0.223497 0.252162
609 1 0.0102446 0.853843 0.251818
610 1 0.0138143 0.811567 0.248646
611 1 0.0103175 0.588372 0.252867
612 1 0.00678905 0.660206 0.254535
613 1 0.0175087 0.857412 0.251648
614 1 0.0213173 0.805722 0.246216
615 1 0.0176346 0.586687 0.255325
616 1 0.0138639 0.658711 0.250037
617 1 0.0248862 0.860403 0.242541
618 1 0.0286215 0.820727 0.247279
619 1 0.024953 0.587724 0.25675
620 1 0.0211554 0.658816 0.250848
621 1 0.0322957 0.862157 0.239755
622 1 0.0360052 0.81742 0.240502
623 1 0.0321571 0.58931 0.241194
624 1 0.0285956 0.661932 0.252668
625 1 0.0396791 0.861922 0.245223
626 1 0.0433845 0.819283 0.254248
627 1 0.0395961 0.589527 0.237761
628 1 0.0359397 0.659059 0.240244
629 1 0.0471231 0.853336 0.237875
630 1 0.0506253 0.814527 0.225257
631 1 0.0469193 0.591423 0.241303
632 1 0.0432209 0.659636 0.244214
633 1 0.054226 0.85814 0.211169
634 1 0.0577835 0.828183 0.218488
635 1 0.0542818 0.590455 0.236625
636 1 0.0506277 0.659428 0.232113
637 1 0.0615062 0.875462 0.217102
638 1 0.0651892 0.827005 0.219588
639 1 0.0616237 0.598797 0.235747
640 1 0.0577942 0.672135 0.235302
641 1 0.0688169 0.86538 0.216915
642 1 0.0723789 0.818937 0.21399
643 1 0.0688961 0.597399 0.236413
644 1 0.0652829 0.670904 0.228291
645 1 0.0761241 0.859478 0.206098
646 1 0.0798725 0.822761 0.215076
647 1 0.0762554 0.600921 0.234137
648 1 0.0724709 0.666407 0.225524
649 1 0.0834847 0.870493 0.205685
650 1 0.0872767 0.825828 0.208812
651 1 0.0837047 0.606376 0.240166
652 1 0.0800457 0.67207 0.230938
653 1 0.0908878 0.872524 0.205066
654 1 0.0946074 0.823567 0.200473
655 1 0.0908629 0.599231 0.23368
656 1 0.0874533 0.675376 0.227477
657 1 0.098222 0.858032 0.185975
658 1 0.101899 0.820115 0.191596
659 1 0.0982933 0.598169 0.232317
660 1 0.0947004 0.668416 0.226772
661 1 0.105545 0.861938 0.191413
662 1 0.109291 0.821784 0.203185
663 1 0.105715 0.594221 0.22819
664 1 0.101916 0.668697 0.217018
665 1 0.113014 0.862652 0.191641
666 1 0.116537 0.816369 0.194224
667 1 0.11295 0.597692 0.230236
668 1 0.10931 0.666462 0.221511
669 1 0.120091 0.862725 0.190484
670 1 0.123749 0.817808 0.197934
671 1 0.120302 0.595667 0.217564
672 1 0.11672 0.663988 0.205346
673 1 0.127632 0.864366 0.18909
674 1 0.131444 0.818813 0.198637
675 1 0.127659 0.593402 0.236548
676 1 0.124076 0.665989 0.215375
677 1 0.135093 0.854707 0.187987
678 1 0.138745 0.807761 0.186898
679 1 0.134996 0.591222 0.232099
680 1 0.131322 0.668351 0.223129
681 1 0.142532 0.852412 0.169205
682 1 0.146025 0.804889 0.17325
683 1 0.142279 0.592485 0.244868
684 1 0.138749 0.660792 0.224687
685 1 0.149685 0.849033 0.15465
686 1 0.153339 0.809255 0.168722
687 1 0.149664 0.58744 0.230943
688 1 0.146061 0.664032 0.225523
689 1 0.156923 0.857452 0.154897
690 1 0.160599 0.816841 0.172276
691 1 0.157063 0.593698 0.223534
692 1 0.153438 0.658764 0.209485
693 1 0.164441 0.853983 0.165718
694 1 0.16803 0.805397 0.180029
695 1 0.164399 0.590619 0.223453
696 1 0.160657 0.666125 0.206581
697 1 0.171578 0.846418 0.17147
698 1 0.175327 0.811023 0.178856
699 1 0.171712 0.588339 0.23455
700 1 0.168126 0.656406 0.212497
701 1 0.178909 0.85915 0.17676
702 1 0.182394 0.821683 0.193694
703 1 0.178991 0.597777 0.239481
704 1 0.175282 0.664341 0.218354
705 1 0.186172 0.86381 0.185515
706 1 0.189661 0.822367 0.187843
707 1 0.186338 0.603653 0.242777
708 1 0.182644 0.671244 0.226447
709 1 0.193265 0.860601 0.171551
710 1 0.196822 0.81719 0.17972
711 1 0.193587 0.599638 0.240031
712 1 0.189944 0.673573 0.225419
713 1 0.200492 0.866613 0.170225
714 1 0.204249 0.821492 0.177945
715 1 0.20083 0.604673 0.227789
716 1 0.197204 0.6705 0.212895
717 1 0.208179 0.875111 0.16721
718 1 0.211779 0.823995 0.167681
719 1 0.208078 0.602231 0.220872
720 1 0.204508 0.673508 0.210046
721 1 0.215499 0.85315 0.1464
722 1 0.219054 0.806356 0.143863
723 1 0.215398 0.599832 0.212753
724 1 0.211698 0.670927 0.202313
725 1 0.222707 0.84617 0.141521
726 1 0.226349 0.8097 0.158566
727 1 0.222856 0.590789 0.206147
728 1 0.219126 0.659464 0.184298
729 1 0.230063 0.850929 0.145378
730 1 0.233727 0.805761 0.159629
731 1 0.230173 0.585287 0.210118
732 1 0.226734 0.655097 0.191642
733 1 0.237422 0.854146 0.148383
734 1 0.241224 0.803058 0.16433
735 1 0.237454 0.584242 0.226821
736 1 0.233863 0.651712 0.198721
737 1 0.244816 0.84641 0.153861
738 1 0.248452 0.803066 0.166158
739 1 0.244667 0.586656 0.22596
740 1 0.241028 0.65596 0.205278
741 1 0.252135 0.831608 0.140156
742 1 0.255888 0.790364 0.149803
743 1 0.252167 0.58229 0.225313
744 1 0.248461 0.654023 0.209889
745 1 0.259618 0.826376 0.13247
746 1 0.263246 0.786926 0.142957
747 1 0.259535 0.574913 0.225673
748 1 0.255894 0.648794 0.205387
749 1 0.266948 0.828436 0.138876
750 1 0.27069 0.789483 0.153567
751 1 0.26693 0.576549 0.211751
752 1 0.263112 0.644514 0.194818
753 1 0.274297 0.826139 0.130353
754 1 0.278052 0.781074 0.136049
755 1 0.274372 0.57615 0.21371
756 1 0.270683 0.645848 0.195594
757 1 0.281718 0.825567 0.131518
758 1 0.285163 0.78278 0.150286
759 1 0.281524 0.570033 0.207333
760 1 0.278021 0.637402 0.184763
761 1 0.288834 0.821808 0.136384
762 1 0.29253 0.784016 0.157685
763 1 0.288708 0.571997 0.229593
764 1 0.285229 0.636918 0.198729
765 1 0.296107 0.823894 0.141522
766 1 0.299947 0.785496 0.147595
767 1 0.296041 0.57846 0.238486
768 1 0.292273 0.64268 0.217042
769 1 0.303744 0.809051 0.127534
770 1 0.307306 0.765609 0.135434
771 1 0.303495 0.57272 0.22621
772 1 0.299746 0.638819 0.203458
773 1 0.310903 0.808684 0.117103
774 1 0.314439 0.764529 0.127814
775 1 0.310743 0.560561 0.211208
776 1 0.307089 0.625115 0.192768
777 1 0.318067 0.801155 0.110574
778 1 0.321776 0.768681 0.130909
779 1 0.317978 0.565138 0.214812
780 1 0.314258 0.620853 0.181548
781 1 0.325362 0.813246 0.116509
782 1 0.328992 0.77067 0.142764
783 1 0.325409 0.576124 0.227357
784 1 0.321585 0.633604 0.194799
785 1 0.332882 0.795672 0.12613
786 1 0.336633 0.759489 0.137623
787 1 0.332623 0.570833 0.229049
788 1 0.328954 0.636093 0.200382
789 1 0.340231 0.791637 0.111603
790 1 0.343836 0.754017 0.134456
791 1 0.339829 0.560301 0.237089
792 1 0.336333 0.621672 0.200662
793 1 0.347352 0.786804 0.104457
794 1 0.35103 0.752213 0.125927
795 1 0.347381 0.56704 0.235687
796 1 0.34368 0.62318 0.207422
797 1 0.354621 0.785715 0.101356
798 1 0.358358 0.75524 0.122665
799 1 0.354614 0.563947 0.236531
800 1 0.350959 0.628551 0.207815
801 1 0.362025 0.788018 0.107986
802 1 0.365736 0.74349 0.124505
803 1 0.36193 0.551273 0.226291
804 1 0.35828 0.62357 0.194401
805 1 0.369362 0.775385 0.0951085
806 1 0.372885 0.733088 0.117349
807 1 0.369225 0.549772 0.220928
808 1 0.365588 0.610465 0.185336
809 1 0.376659 0.764965 0.0985204
810 1 0.380407 0.733918 0.116682
811 1 0.376447 0.548545 0.225417
812 1 0.372787 0.602993 0.191507
813 1 0.384109 0.763805 0.0941918
814 1 0.387837 0.732212 0.10783
815 1 0.383955 0.549978 0.21997
816 1 0.380216 0.604045 0.192727
817 1 0.3915 0.762584 0.0867171
818 1 0.395094 0.722394 0.101134
819 1 0.391351 0.547315 0.2246
820 1 0.387609 0.609507 0.191006
821 1 0.398697 0.767391 0.0829337
822 1 0.402292 0.72662 0.101554
823 1 0.398756 0.550974 0.222609
824 1 0.395154 0.593831 0.180031
825 1 0.405813 0.771051 0.080274
826 1 0.409639 0.739965 0.103349
827 1 0.406047 0.560196 0.224678
828 1 0.402257 0.606113 0.183511
829 1 0.413375 0.766101 0.0740616
830 1 0.416922 0.726688 0.0946572
831 1 0.413324 0.55638 0.218704
832 1 0.409632 0.618685 0.18434
833 1 0.420674 0.76225 0.0717246
834 1 0.424453 0.726727 0.0943528
835 1 0.42058 0.556853 0.212638
836 1 0.41689 0.606535 0.177724
837 1 0.428061 0.756272 0.0602342
838 1 0.431778 0.712728 0.0795049
839 1 0.427984 0.55004 0.212907
840 1 0.424171 0.6094 0.18169
841 1 0.435523 0.732604 0.0480479
842 1 0.439263 0.704713 0.0702874
843 1 0.435264 0.542276 0.212028
844 1 0.431644 0.595816 0.16816
845 1 0.443007 0.735741 0.0432855
846 1 0.446595 0.70549 0.0788915
847 1 0.442695 0.535716 0.20716
848 1 0.438915 0.589742 0.164681
849 1 0.450323 0.734567 0.0509423
850 1 0.454099 0.70758 0.083656
851 1 0.450138 0.536117 0.213208
852 1 0.446408 0.589749 0.169419
853 1 0.4579 0.738546 0.0683074
854 1 0.461528 0.708823 0.103339
855 1 0.457391 0.536555 0.222023
856 1 0.453927 0.59051 0.175442
857 1 0.465467 0.741164 0.0968532
858 1 0.469112 0.69986 0.13
859 1 0.464973 0.522513 0.238566
860 1 0.461348 0.591867 0.198678
861 1 0.473028 0.71302 0.104082
862 1 0.476932 0.664449 0.120288
863 1 0.472264 0.512396 0.245352
864 1 0.468789 0.575219 0.206824
865 1 0.480922 0.666967 0.10503
866 1 0.484528 0.621216 0.150103
867 1 0.479634 0.491458 0.263918
868 1 0.476349 0.550872 0.212449
869 1 0.488801 0.6093 0.158618
870 1 0.492845 0.526921 0.187649
871 1 0.487113 0.469726 0.305169
872 1 0.483739 0.522102 0.245428
873 1 0.496774 0.455608 0.202908
874 1 0.500336 0.401231 0.27211
875 1 0.494485 0.429718 0.385242
876 1 0.491405 0.4697 0.298555
877 1 0.504126 0.378918 0.312574
878 1 0.507141 0.388279 0.40784
879 1 0.501115 0.425452 0.496856
880 1 0.498491 0.422261 0.387675
881 1 0.510765 0.423716 0.442921
882 1 0.513181 0.492574 0.536815
883 1 0.506821 0.483369 0.614292
884 1 0.50496 0.439609 0.507544
885 1 0.5162 0.58659 0.575952
886 1 0.517498 0.696775 0.656104
887 1 0.511743 0.623363 0.739643
888 1 0.51054 0.536915 0.629388
889 1 0.519351 0.82931 0.65509
890 1 0.518321 0.974693 0.610905
891 1 0.513482 0.883188 0.75836
892 1 0.514359 0.728389 0.734192
893 1 0.517869 1.0112 0.475685
894 1 0.515332 0.9765 0.382932
895 1 0.511413 0.994189 0.567332
896 1 0.514429 0.970282 0.657364
897 1 0.515337 0.905947 0.268885
898 1 0.513151 0.819197 0.19241
899 1 0.508839 0.909854 0.348459
900 1 0.511661 0.967022 0.427416
901 1 0.512832 0.71948 0.103093
902 1 0.51046 0.634891 0.0421
903 1 0.506266 0.793287 0.158261
904 1 0.509385 0.84587 0.229409
905 1 0.509795 0.4994 0.0062024
906 1 0.507566 0.385245 0.0147981
907 1 0.503687 0.602452 0.00947805
908 1 0.506569 0.684402 0.0604825
909 1 0.506922 0.274376 0.0984729
910 1 0.504854 0.201349 0.178599
911 1 0.500865 0.348582 0.0427242