ITEM: TIMESTEP
372000
ITEM: NUMBER OF ATOMS
1216
ITEM: BOX BOUNDS ss ss ss
-0.0318707 373.732
-1.22119 8.78679
1.90862 13.1104
ITEM: ATOMS id type xs ys zs
1 1 0.0034098 0.436472 0.238605
2 1 0.00666776 0.364013 0.23859
3 1 0.00336974 0.153513 0.238605
4 1 9.64606e-05 0.222031 0.238598
5 1 0.00339441 0.861368 0.238609
6 1 0.00666391 0.790986 0.238564
7 1 0.00335 0.577787 0.2386
8 1 9.80141e-05 0.648496 0.2386
9 1 0.0103734 0.429672 0.237443
10 1 0.0139522 0.360505 0.236766
11 1 0.0104803 0.16764 0.238942
12 1 0.00691356 0.208338 0.238854
13 1 0.0177571 0.428958 0.239096
14 1 0.0215387 0.357545 0.239277
15 1 0.0177768 0.173405 0.236471
16 1 0.0140238 0.212123 0.238396
17 1 0.0251432 0.422933 0.232491
18 1 0.0289252 0.35645 0.23025
19 1 0.0251141 0.168413 0.231806
20 1 0.0214429 0.21049 0.234534
21 1 0.0324618 0.431402 0.229824
22 1 0.0360507 0.36316 0.237738
23 1 0.0324355 0.162721 0.227853
24 1 0.0287903 0.204875 0.22675
25 1 0.0397899 0.433006 0.236103
26 1 0.0434538 0.364038 0.235876
27 1 0.039748 0.165583 0.24052
28 1 0.0360738 0.206249 0.232526
29 1 0.0469821 0.427087 0.245147
30 1 0.0508926 0.357979 0.238328
31 1 0.047194 0.172566 0.241653
32 1 0.0434695 0.214257 0.242662
33 1 0.054332 0.427515 0.238857
34 1 0.0580549 0.361776 0.246521
35 1 0.0544577 0.168038 0.252029
36 1 0.0508547 0.212238 0.235607
37 1 0.0615288 0.430837 0.23877
38 1 0.0653095 0.36748 0.246169
39 1 0.0617829 0.175384 0.259384
40 1 0.0582343 0.21142 0.258416
41 1 0.069115 0.440743 0.245264
42 1 0.0728913 0.371191 0.25979
43 1 0.0690682 0.178959 0.265576
44 1 0.0653719 0.219626 0.252424
45 1 0.0764793 0.438683 0.246704
46 1 0.0800613 0.373973 0.256242
47 1 0.0764374 0.183054 0.279962
48 1 0.0727008 0.22046 0.272097
49 1 0.0836839 0.439899 0.24713
50 1 0.0873635 0.376206 0.250645
51 1 0.0838267 0.189381 0.290413
52 1 0.0801569 0.229126 0.281576
53 1 0.0910812 0.436298 0.239739
54 1 0.0948485 0.371405 0.252513
55 1 0.091151 0.183042 0.275439
56 1 0.0874515 0.228287 0.274689
57 1 0.0984603 0.441866 0.253354
58 1 0.102216 0.370173 0.262494
59 1 0.0986513 0.181001 0.275512
60 1 0.0950478 0.221684 0.265833
61 1 0.105862 0.44374 0.249107
62 1 0.109563 0.373654 0.253371
63 1 0.10594 0.178193 0.27578
64 1 0.102418 0.221836 0.274847
65 1 0.113129 0.441284 0.247842
66 1 0.11684 0.373104 0.255457
67 1 0.11316 0.186956 0.279226
68 1 0.10949 0.225019 0.267586
69 1 0.120465 0.442598 0.253857
70 1 0.124089 0.377836 0.257738
71 1 0.120342 0.188216 0.287265
72 1 0.11669 0.22664 0.27531
73 1 0.12786 0.442357 0.234925
74 1 0.131432 0.374433 0.252167
75 1 0.12765 0.186832 0.291527
76 1 0.124063 0.231838 0.28365
77 1 0.135188 0.441313 0.242121
78 1 0.138791 0.376751 0.267321
79 1 0.135081 0.181888 0.300437
80 1 0.131408 0.225717 0.285972
81 1 0.142466 0.442084 0.25103
82 1 0.146187 0.375265 0.256025
83 1 0.142404 0.184562 0.289493
84 1 0.138773 0.229745 0.290578
85 1 0.149983 0.44624 0.242724
86 1 0.153533 0.383618 0.247618
87 1 0.149803 0.185773 0.277052
88 1 0.146059 0.224716 0.27925
89 1 0.15716 0.44947 0.246043
90 1 0.16074 0.387059 0.258653
91 1 0.15706 0.192417 0.278342
92 1 0.153435 0.231859 0.266419
93 1 0.164453 0.444361 0.23902
94 1 0.167946 0.373503 0.251881
95 1 0.164287 0.190525 0.274889
96 1 0.160721 0.236948 0.275304
97 1 0.171473 0.443981 0.245197
98 1 0.175108 0.379485 0.251938
99 1 0.171461 0.193019 0.283601
100 1 0.167901 0.229287 0.276258
101 1 0.17872 0.445789 0.234503
102 1 0.182234 0.375952 0.251165
103 1 0.178768 0.187178 0.289725
104 1 0.175263 0.23442 0.278575
105 1 0.186176 0.446482 0.234369
106 1 0.189712 0.378902 0.252996
107 1 0.186213 0.183386 0.279401
108 1 0.182579 0.221931 0.276404
109 1 0.193422 0.444522 0.240942
110 1 0.197001 0.377408 0.260176
111 1 0.193591 0.190249 0.281127
112 1 0.18983 0.232902 0.268157
113 1 0.200634 0.447429 0.254169
114 1 0.204263 0.379039 0.262058
115 1 0.20076 0.185327 0.281932
116 1 0.197261 0.230078 0.27972
117 1 0.20795 0.448831 0.253331
118 1 0.211642 0.384254 0.268653
119 1 0.208091 0.183913 0.283147
120 1 0.204322 0.223916 0.279862
121 1 0.215447 0.456615 0.266901
122 1 0.218927 0.385108 0.272941
123 1 0.215258 0.188631 0.296888
124 1 0.211593 0.23192 0.284316
125 1 0.222611 0.456506 0.250001
126 1 0.226282 0.388737 0.263433
127 1 0.222604 0.200157 0.300563
128 1 0.219018 0.235278 0.29477
129 1 0.229833 0.446399 0.243363
130 1 0.233525 0.376691 0.259128
131 1 0.229941 0.199654 0.325419
132 1 0.226237 0.244035 0.302593
133 1 0.237302 0.437758 0.237213
134 1 0.240859 0.366745 0.25165
135 1 0.237353 0.179572 0.315022
136 1 0.233565 0.232509 0.306541
137 1 0.244704 0.431201 0.228678
138 1 0.248411 0.364754 0.249028
139 1 0.244728 0.180335 0.305652
140 1 0.241024 0.21936 0.298723
141 1 0.252127 0.436071 0.24018
142 1 0.255819 0.368324 0.25916
143 1 0.252089 0.18125 0.306727
144 1 0.248468 0.222217 0.291471
145 1 0.259425 0.439112 0.235737
146 1 0.263004 0.372166 0.256941
147 1 0.259472 0.182981 0.313004
148 1 0.255775 0.221879 0.301372
149 1 0.266667 0.439378 0.247091
150 1 0.270389 0.381154 0.277183
151 1 0.266804 0.191651 0.322351
152 1 0.263077 0.224158 0.299646
153 1 0.27409 0.447532 0.256023
154 1 0.277756 0.386518 0.278041
155 1 0.274146 0.211728 0.336362
156 1 0.270364 0.244809 0.321369
157 1 0.281535 0.444502 0.25434
158 1 0.285221 0.372665 0.284248
159 1 0.281332 0.207143 0.347521
160 1 0.27778 0.248039 0.329698
161 1 0.288699 0.440648 0.270257
162 1 0.292382 0.375705 0.290913
163 1 0.288595 0.196683 0.355102
164 1 0.284988 0.237694 0.340635
165 1 0.296095 0.443037 0.273311
166 1 0.299713 0.38256 0.294198
167 1 0.296077 0.194469 0.358578
168 1 0.292343 0.233394 0.339099
169 1 0.303539 0.446837 0.274092
170 1 0.307314 0.382124 0.294627
171 1 0.303553 0.21041 0.356589
172 1 0.299815 0.243603 0.345338
173 1 0.310953 0.441789 0.261725
174 1 0.314659 0.377426 0.287437
175 1 0.310794 0.212078 0.371508
176 1 0.307209 0.253133 0.354615
177 1 0.318389 0.441149 0.254473
178 1 0.321914 0.377547 0.2876
179 1 0.318365 0.210733 0.36941
180 1 0.314614 0.24419 0.360147
181 1 0.32564 0.436502 0.249948
182 1 0.32917 0.376819 0.280465
183 1 0.325796 0.208602 0.362515
184 1 0.322018 0.245122 0.346165
185 1 0.332881 0.439266 0.251941
186 1 0.336598 0.370292 0.2786
187 1 0.333004 0.201021 0.351216
188 1 0.329473 0.243354 0.339343
189 1 0.340356 0.434714 0.248302
190 1 0.344023 0.37748 0.280901
191 1 0.340287 0.207945 0.356992
192 1 0.336616 0.242831 0.338315
193 1 0.347683 0.445731 0.260251
194 1 0.351486 0.386336 0.287628
195 1 0.347658 0.204645 0.361584
196 1 0.344028 0.244928 0.33862
197 1 0.355029 0.444524 0.26258
198 1 0.358786 0.383788 0.283959
199 1 0.354904 0.221803 0.364537
200 1 0.351198 0.251282 0.34521
201 1 0.362254 0.443662 0.260363
202 1 0.365918 0.379256 0.284361
203 1 0.362273 0.218844 0.370435
204 1 0.358667 0.25998 0.350918
205 1 0.369558 0.437059 0.25409
206 1 0.373422 0.380799 0.287097
207 1 0.369734 0.213807 0.379597
208 1 0.366008 0.249063 0.353261
209 1 0.376883 0.440769 0.258364
210 1 0.380562 0.382148 0.289547
211 1 0.377146 0.218447 0.373021
212 1 0.373385 0.249323 0.355768
213 1 0.384118 0.443231 0.260271
214 1 0.38785 0.385993 0.291071
215 1 0.384265 0.213578 0.368897
216 1 0.380712 0.254696 0.355912
217 1 0.391473 0.452749 0.269429
218 1 0.39507 0.388061 0.293964
219 1 0.391471 0.206063 0.370258
220 1 0.387849 0.247335 0.349406
221 1 0.398755 0.443929 0.265131
222 1 0.402361 0.387047 0.292885
223 1 0.398689 0.221094 0.377355
224 1 0.395115 0.253092 0.358607
225 1 0.405996 0.449959 0.267758
226 1 0.40966 0.383126 0.298373
227 1 0.406099 0.22082 0.38758
228 1 0.402439 0.260439 0.364885
229 1 0.413249 0.447449 0.272181
230 1 0.417128 0.387386 0.307324
231 1 0.413468 0.216996 0.379376
232 1 0.409812 0.250526 0.364605
233 1 0.420701 0.452116 0.284784
234 1 0.424206 0.385645 0.3099
235 1 0.420709 0.219471 0.397612
236 1 0.41718 0.261722 0.373016
237 1 0.428181 0.45477 0.281959
238 1 0.431808 0.405545 0.328228
239 1 0.428171 0.225449 0.411232
240 1 0.424571 0.25559 0.381516
241 1 0.435436 0.457063 0.295852
242 1 0.438995 0.405588 0.336366
243 1 0.435208 0.240519 0.426041
244 1 0.431615 0.272969 0.395892
245 1 0.442705 0.455156 0.298129
246 1 0.446286 0.393514 0.337325
247 1 0.442433 0.247541 0.43823
248 1 0.438769 0.280938 0.409047
249 1 0.450111 0.450378 0.294407
250 1 0.453614 0.394006 0.332517
251 1 0.449779 0.247278 0.441921
252 1 0.44614 0.279385 0.421291
253 1 0.457249 0.442595 0.295387
254 1 0.460713 0.379825 0.331026
255 1 0.45692 0.232413 0.437998
256 1 0.453378 0.271573 0.419104
257 1 0.46454 0.4394 0.304751
258 1 0.468019 0.37091 0.344747
259 1 0.464066 0.222086 0.433868
260 1 0.460334 0.261143 0.412381
261 1 0.471849 0.428426 0.313462
262 1 0.47516 0.375867 0.366166
263 1 0.471175 0.21476 0.451297
264 1 0.467643 0.255111 0.419794
265 1 0.478971 0.424829 0.340241
266 1 0.482338 0.367124 0.389846
267 1 0.47826 0.198478 0.454657
268 1 0.474711 0.24752 0.440673
269 1 0.48619 0.406398 0.383072
270 1 0.489226 0.356138 0.452561
271 1 0.485221 0.212536 0.481226
272 1 0.48179 0.235441 0.436195
273 1 0.49297 0.393152 0.467559
274 1 0.495458 0.360179 0.566327
275 1 0.491127 0.233075 0.611798
276 1 0.488613 0.246495 0.529672
277 1 0.499222 0.402514 0.576901
278 1 0.501117 0.410308 0.685788
279 1 0.496312 0.295069 0.761354
280 1 0.494204 0.280247 0.662368
281 1 0.504656 0.461432 0.697758
282 1 0.505811 0.521389 0.807081
283 1 0.501237 0.401777 0.892641
284 1 0.49945 0.351393 0.794723
285 1 0.508556 0.622814 0.809358
286 1 0.508072 0.750782 0.881002
287 1 0.503726 0.628817 0.97225
288 1 0.503641 0.50421 0.918549
289 1 0.509461 0.87477 0.811301
290 1 0.506742 0.956027 0.751103
291 1 0.502911 0.871415 0.897284
292 1 0.504589 0.762814 0.954929
293 1 0.507042 0.993628 0.618027
294 1 0.503971 0.967786 0.535142
295 1 0.500401 0.95494 0.699231
296 1 0.502932 0.944933 0.794037
297 1 0.504356 0.942283 0.40347
298 1 0.501544 0.903619 0.323081
299 1 0.498028 0.935476 0.476309
300 1 0.500347 0.961643 0.576854
301 1 0.502165 0.84584 0.194841
302 1 0.499259 0.790326 0.116991
303 1 0.495571 0.885536 0.262697
304 1 0.497782 0.91961 0.356859
305 1 0.499906 0.677154 0.0289021
306 1 0.496937 0.594306 -0.00826704
307 1 0.493224 0.748558 0.0721653
308 1 0.495405 0.82287 0.148649
309 1 0.497214 0.439525 -0.000599707
310 1 0.494235 0.348931 0.0447958
311 1 0.490801 0.520757 -0.00557117
312 1 0.493023 0.630722 -0.00340995
313 1 0.494749 0.251915 0.141807
314 1 0.491821 0.188866 0.209162
315 1 0.488022 0.308574 0.0892543
316 1 0.490523 0.389481 0.0310009
317 1 0.492087 0.10461 0.325128
318 1 0.48904 0.0522689 0.398936
319 1 0.485598 0.139906 0.251977
320 1 0.487841 0.20924 0.176894
321 1 0.489393 0.0401427 0.527765
322 1 0.486271 0.0602077 0.613674
323 1 0.482561 0.0269001 0.442007
324 1 0.485145 0.0526896 0.353423
325 1 0.487083 0.147439 0.71628
326 1 0.486202 0.293185 0.70166
327 1 0.481412 0.191164 0.61909
328 1 0.482409 0.061018 0.571202
329 1 0.488889 0.399732 0.706967
330 1 0.489816 0.497428 0.612459
331 1 0.484104 0.448931 0.553797
332 1 0.483108 0.325376 0.625437
333 1 0.493419 0.554966 0.603895
334 1 0.495083 0.619348 0.49704
335 1 0.489175 0.611875 0.432018
336 1 0.487087 0.540804 0.525187
337 1 0.498989 0.631934 0.479639
338 1 0.501751 0.631659 0.364359
339 1 0.495749 0.665313 0.298653
340 1 0.492978 0.65648 0.38754
341 1 0.505863 0.627747 0.357654
342 1 0.508889 0.57895 0.27038
343 1 0.503273 0.590034 0.183422
344 1 0.499567 0.645174 0.257873
345 1 0.513051 0.574808 0.279997
346 1 0.516422 0.512192 0.226391
347 1 0.511617 0.431245 0.136598
348 1 0.507452 0.518307 0.161112
349 1 0.520383 0.546614 0.251572
350 1 0.523724 0.483077 0.198529
351 1 0.519329 0.361255 0.104217
352 1 0.515566 0.412522 0.136335
353 1 0.527781 0.526634 0.227934
354 1 0.531364 0.461243 0.183837
355 1 0.526919 0.322629 0.0924332
356 1 0.523227 0.376103 0.113663
357 1 0.53509 0.505264 0.222373
358 1 0.538688 0.443019 0.18369
359 1 0.534513 0.307465 0.0844066
360 1 0.530848 0.347684 0.105878
361 1 0.542552 0.491932 0.222129
362 1 0.546075 0.426609 0.181657
363 1 0.54191 0.282107 0.0799282
364 1 0.538276 0.325735 0.106413
365 1 0.549789 0.48075 0.215127
366 1 0.553477 0.420503 0.176957
367 1 0.549442 0.262636 0.0795522
368 1 0.545658 0.305002 0.100469
369 1 0.557002 0.477778 0.206993
370 1 0.560867 0.417824 0.16879
371 1 0.556793 0.265996 0.0721499
372 1 0.553202 0.297727 0.0972586
373 1 0.564428 0.471543 0.204696
374 1 0.568134 0.41721 0.160921
375 1 0.564148 0.266982 0.0511448
376 1 0.560488 0.302127 0.0856252
377 1 0.57176 0.471775 0.192918
378 1 0.57548 0.412404 0.167812
379 1 0.571584 0.259516 0.0603839
380 1 0.567881 0.294345 0.0811941
381 1 0.579272 0.45512 0.208183
382 1 0.58291 0.396877 0.169237
383 1 0.579061 0.253985 0.0608422
384 1 0.575351 0.29701 0.0802094
385 1 0.586581 0.458339 0.201389
386 1 0.590159 0.402737 0.161168
387 1 0.586504 0.251235 0.0584591
388 1 0.582808 0.279888 0.0813122
389 1 0.593916 0.459025 0.188704
390 1 0.597605 0.405445 0.154672
391 1 0.59367 0.242021 0.0615919
392 1 0.59008 0.286837 0.0768347
393 1 0.60123 0.459159 0.181198
394 1 0.604865 0.393911 0.15994
395 1 0.601117 0.239122 0.0623198
396 1 0.597428 0.278426 0.0825879
397 1 0.608572 0.452704 0.197221
398 1 0.612418 0.388994 0.160375
399 1 0.608615 0.218499 0.0807087
400 1 0.604906 0.268703 0.0943926
401 1 0.616194 0.450037 0.194608
402 1 0.619823 0.389131 0.169489
403 1 0.616196 0.220966 0.0881376
404 1 0.612203 0.25622 0.106445
405 1 0.623486 0.448549 0.203321
406 1 0.627228 0.385546 0.18252
407 1 0.623426 0.220096 0.0841767
408 1 0.619913 0.265741 0.102949
409 1 0.630964 0.443866 0.210317
410 1 0.634508 0.38771 0.180019
411 1 0.630863 0.208654 0.105832
412 1 0.626953 0.249005 0.114456
413 1 0.638128 0.448639 0.209575
414 1 0.6419 0.384965 0.180438
415 1 0.638245 0.212012 0.107797
416 1 0.634452 0.250214 0.122812
417 1 0.645398 0.446837 0.208558
418 1 0.649068 0.386072 0.181678
419 1 0.645627 0.220872 0.0986749
420 1 0.641785 0.255023 0.118474
421 1 0.652809 0.444526 0.213671
422 1 0.656223 0.382076 0.179146
423 1 0.652774 0.206728 0.106349
424 1 0.649179 0.252422 0.121435
425 1 0.659979 0.439856 0.208385
426 1 0.663639 0.377589 0.182809
427 1 0.660091 0.215635 0.0961709
428 1 0.656407 0.250393 0.120693
429 1 0.66741 0.441437 0.206767
430 1 0.670972 0.387 0.17479
431 1 0.667447 0.211309 0.0986895
432 1 0.663805 0.250809 0.119331
433 1 0.674861 0.444734 0.200058
434 1 0.678566 0.38722 0.171659
435 1 0.674733 0.212787 0.105689
436 1 0.671136 0.251874 0.122475
437 1 0.682265 0.4557 0.194702
438 1 0.685955 0.392749 0.15802
439 1 0.68224 0.215249 0.101022
440 1 0.6785 0.246623 0.122479
441 1 0.689646 0.455582 0.184043
442 1 0.693281 0.39087 0.166521
443 1 0.689689 0.218937 0.0947946
444 1 0.685799 0.256646 0.10804
445 1 0.697075 0.457595 0.186031
446 1 0.700723 0.396031 0.159633
447 1 0.697012 0.220652 0.0983708
448 1 0.693275 0.254405 0.114926
449 1 0.704338 0.454465 0.194221
450 1 0.707898 0.395557 0.167434
451 1 0.704323 0.228936 0.0861905
452 1 0.700691 0.262598 0.102435
453 1 0.71145 0.45054 0.197287
454 1 0.715044 0.388901 0.16862
455 1 0.711542 0.221086 0.0892645
456 1 0.707941 0.262776 0.10894
457 1 0.718594 0.448661 0.196908
458 1 0.722407 0.389356 0.174578
459 1 0.718742 0.219933 0.0956067
460 1 0.71506 0.256938 0.110603
461 1 0.726023 0.453543 0.202666
462 1 0.72958 0.391691 0.174249
463 1 0.72614 0.219047 0.106846
464 1 0.722451 0.259143 0.117211
465 1 0.733473 0.451186 0.200711
466 1 0.737072 0.386899 0.175709
467 1 0.73341 0.210786 0.111568
468 1 0.729791 0.253054 0.120175
469 1 0.740863 0.453403 0.205446
470 1 0.744312 0.392633 0.184619
471 1 0.740805 0.20971 0.118337
472 1 0.73708 0.248973 0.127906
473 1 0.748055 0.454314 0.209
474 1 0.751929 0.393123 0.186788
475 1 0.748175 0.216237 0.114529
476 1 0.744368 0.250587 0.133684
477 1 0.755574 0.455122 0.210456
478 1 0.759329 0.396393 0.183031
479 1 0.75556 0.21934 0.112519
480 1 0.751873 0.256192 0.132402
481 1 0.762957 0.458429 0.213932
482 1 0.766697 0.400918 0.182549
483 1 0.762876 0.221411 0.095792
484 1 0.759278 0.259602 0.122016
485 1 0.770162 0.463904 0.212334
486 1 0.773802 0.396648 0.199599
487 1 0.770241 0.230498 0.111521
488 1 0.766452 0.266468 0.115068
489 1 0.777218 0.460922 0.219914
490 1 0.781112 0.395628 0.196947
491 1 0.777456 0.219502 0.13465
492 1 0.773802 0.262807 0.146242
493 1 0.784762 0.464374 0.219123
494 1 0.788375 0.401003 0.186015
495 1 0.7849 0.219025 0.124736
496 1 0.781162 0.258071 0.137929
497 1 0.792299 0.466132 0.199738
498 1 0.795999 0.398495 0.183902
499 1 0.792183 0.221609 0.11803
500 1 0.788581 0.262247 0.132279
501 1 0.799628 0.460247 0.207745
502 1 0.80313 0.39307 0.181509
503 1 0.799391 0.209064 0.126472
504 1 0.79578 0.255569 0.134816
505 1 0.806812 0.461396 0.203135
506 1 0.810563 0.391272 0.196579
507 1 0.806686 0.204558 0.149014
508 1 0.803074 0.246533 0.147254
509 1 0.814288 0.456727 0.212759
510 1 0.817875 0.381088 0.196217
511 1 0.81407 0.204182 0.163907
512 1 0.810365 0.246552 0.166908
513 1 0.821564 0.450579 0.205349
514 1 0.82529 0.380671 0.193716
515 1 0.821319 0.195227 0.164105
516 1 0.817806 0.241444 0.168484
517 1 0.829059 0.443738 0.19892
518 1 0.832759 0.367434 0.190521
519 1 0.828841 0.182246 0.168868
520 1 0.825074 0.230441 0.169256
521 1 0.836328 0.433801 0.207292
522 1 0.839952 0.36404 0.201798
523 1 0.836207 0.17506 0.172981
524 1 0.83256 0.2186 0.173673
525 1 0.843563 0.424811 0.220092
526 1 0.847252 0.359756 0.213535
527 1 0.84345 0.175825 0.181832
528 1 0.839827 0.219128 0.182368
529 1 0.850958 0.431823 0.222702
530 1 0.854552 0.358089 0.223751
531 1 0.85088 0.178323 0.177995
532 1 0.847221 0.213023 0.189279
533 1 0.858147 0.430376 0.227405
534 1 0.861843 0.359266 0.214932
535 1 0.858255 0.171735 0.176004
536 1 0.854653 0.211883 0.188207
537 1 0.865497 0.428745 0.223431
538 1 0.869208 0.360553 0.212085
539 1 0.865463 0.173572 0.172152
540 1 0.861873 0.212479 0.184114
541 1 0.872957 0.427584 0.221201
542 1 0.876526 0.358255 0.203964
543 1 0.873048 0.173759 0.171898
544 1 0.869087 0.212937 0.180925
545 1 0.880201 0.428059 0.215699
546 1 0.883779 0.357865 0.212906
547 1 0.880375 0.176231 0.174089
548 1 0.876621 0.215767 0.176296
549 1 0.88754 0.422824 0.229589
550 1 0.89119 0.349472 0.223191
551 1 0.887674 0.168025 0.177113
552 1 0.884101 0.212249 0.185511
553 1 0.894963 0.424433 0.231781
554 1 0.898677 0.355245 0.216856
555 1 0.895021 0.157729 0.195766
556 1 0.891281 0.203381 0.194501
557 1 0.902354 0.42481 0.225833
558 1 0.905918 0.35478 0.226601
559 1 0.902291 0.162588 0.207927
560 1 0.898617 0.206197 0.203501
561 1 0.909594 0.426655 0.220538
562 1 0.913132 0.358962 0.212139
563 1 0.909587 0.161015 0.204877
564 1 0.906054 0.206209 0.214155
565 1 0.916965 0.421815 0.221255
566 1 0.920432 0.349758 0.215891
567 1 0.916743 0.162145 0.204309
568 1 0.913154 0.207514 0.210039
569 1 0.92426 0.419064 0.230744
570 1 0.927981 0.353824 0.226793
571 1 0.924268 0.166572 0.201306
572 1 0.920472 0.197962 0.200863
573 1 0.93165 0.4166 0.23937
574 1 0.935486 0.348444 0.237621
575 1 0.931627 0.160164 0.214637
576 1 0.927946 0.210053 0.211342
577 1 0.939187 0.412847 0.240716
578 1 0.942774 0.348582 0.236493
579 1 0.939051 0.158897 0.224071
580 1 0.935273 0.198626 0.227224
581 1 0.946444 0.42202 0.228022
582 1 0.950173 0.350328 0.221972
583 1 0.946526 0.152491 0.219763
584 1 0.942749 0.199426 0.226636
585 1 0.953786 0.426453 0.226584
586 1 0.957436 0.358328 0.216323
587 1 0.953716 0.159616 0.206952
588 1 0.950196 0.203146 0.21806
589 1 0.960935 0.427681 0.222265
590 1 0.964509 0.355589 0.222512
591 1 0.960926 0.15179 0.206863
592 1 0.957341 0.205798 0.203612
593 1 0.968239 0.424008 0.227039
594 1 0.972085 0.35715 0.231777
595 1 0.968316 0.156238 0.215305
596 1 0.964708 0.199304 0.211444
597 1 0.975599 0.431118 0.23311
598 1 0.979202 0.363058 0.226807
599 1 0.975731 0.165043 0.249037
600 1 0.971948 0.200227 0.231982
601 1 0.982836 0.438642 0.225095
602 1 0.986533 0.370197 0.235589
603 1 0.982958 0.175158 0.240717
604 1 0.979354 0.218342 0.238711
605 1 0.990102 0.438255 0.237055
606 1 0.993651 0.368641 0.238236
607 1 0.990173 0.181177 0.237501
608 1 0.986583 0.222188 0.235954
609 1 0.0103085 0.832535 0.235614
610 1 0.0139004 0.7916 0.232482
611 1 0.0103818 0.575486 0.23665
612 1 0.00683136 0.645042 0.238297
613 1 0.0175895 0.834206 0.243556
614 1 0.0212154 0.788646 0.247329
615 1 0.0176755 0.577834 0.237978
616 1 0.0139503 0.643594 0.233855
617 1 0.0249186 0.83102 0.243213
618 1 0.0284688 0.79097 0.23073
619 1 0.0250313 0.57497 0.23304
620 1 0.0213171 0.641773 0.242147
621 1 0.032197 0.837605 0.23112
622 1 0.0359693 0.797403 0.230105
623 1 0.0323785 0.576572 0.227174
624 1 0.0286629 0.64362 0.230849
625 1 0.0397356 0.835358 0.232168
626 1 0.0434721 0.79714 0.235763
627 1 0.0397833 0.575991 0.232627
628 1 0.0361081 0.645238 0.229423
629 1 0.0472196 0.838672 0.233079
630 1 0.0507315 0.79537 0.226436
631 1 0.0469576 0.57842 0.239832
632 1 0.0434095 0.651561 0.242598
633 1 0.0545905 0.830652 0.216803
634 1 0.0583259 0.787162 0.214276
635 1 0.0542931 0.570461 0.228135
636 1 0.0508002 0.642349 0.229122
637 1 0.0617748 0.831395 0.21579
638 1 0.0654562 0.799222 0.222962
639 1 0.061634 0.577606 0.232481
640 1 0.0578299 0.641335 0.224667
641 1 0.0691012 0.840562 0.218992
642 1 0.0726296 0.803864 0.227719
643 1 0.0690923 0.587439 0.231591
644 1 0.0653819 0.649834 0.238298
645 1 0.0762756 0.852177 0.219962
646 1 0.0800189 0.803759 0.218444
647 1 0.0763515 0.582524 0.230228
648 1 0.0727242 0.652014 0.226185
649 1 0.0837383 0.851388 0.217492
650 1 0.0874781 0.806638 0.215703
651 1 0.0836719 0.586116 0.225385
652 1 0.0799305 0.653729 0.227247
653 1 0.0912021 0.847543 0.218891
654 1 0.0948049 0.799624 0.221283
655 1 0.0911613 0.584387 0.22696
656 1 0.0874062 0.653456 0.216675
657 1 0.0984744 0.839858 0.227249
658 1 0.102182 0.802432 0.222346
659 1 0.0985878 0.586566 0.234956
660 1 0.0948466 0.653686 0.225388
661 1 0.105788 0.846928 0.214975
662 1 0.109503 0.803805 0.217313
663 1 0.105814 0.585658 0.230684
664 1 0.102246 0.656514 0.226849
665 1 0.113181 0.850252 0.200917
666 1 0.116786 0.803972 0.19742
667 1 0.113237 0.584479 0.228809
668 1 0.109526 0.651332 0.226452
669 1 0.120419 0.843864 0.180863
670 1 0.124079 0.801788 0.190609
671 1 0.120507 0.592048 0.231639
672 1 0.116845 0.65341 0.218627
673 1 0.127797 0.841756 0.179958
674 1 0.131501 0.796483 0.178922
675 1 0.127803 0.585661 0.215337
676 1 0.124072 0.659667 0.213173
677 1 0.135247 0.838314 0.173527
678 1 0.138831 0.793732 0.183151
679 1 0.135205 0.580424 0.213639
680 1 0.131466 0.652187 0.200512
681 1 0.1424 0.842647 0.171657
682 1 0.146146 0.80791 0.183986
683 1 0.142715 0.587192 0.221647
684 1 0.138921 0.649271 0.209112
685 1 0.149879 0.848985 0.16686
686 1 0.153638 0.808043 0.164135
687 1 0.149949 0.593757 0.223268
688 1 0.146343 0.660206 0.213197
689 1 0.157225 0.847654 0.159944
690 1 0.160756 0.803785 0.172097
691 1 0.157218 0.593203 0.21485
692 1 0.153433 0.659718 0.200717
693 1 0.164381 0.846239 0.160671
694 1 0.167962 0.802912 0.174243
695 1 0.164323 0.588123 0.204926
696 1 0.160747 0.655526 0.203187
697 1 0.171479 0.845618 0.167304
698 1 0.175227 0.796144 0.167073
699 1 0.171532 0.589202 0.219952
700 1 0.167995 0.657002 0.191781
701 1 0.178755 0.841235 0.153229
702 1 0.182538 0.799328 0.153055
703 1 0.178958 0.587725 0.20983
704 1 0.175187 0.651976 0.201618
705 1 0.186192 0.835886 0.148092
706 1 0.189781 0.791869 0.159599
707 1 0.18597 0.585852 0.204813
708 1 0.182438 0.653523 0.189312
709 1 0.193414 0.833184 0.148953
710 1 0.19703 0.792307 0.164306
711 1 0.19336 0.589654 0.214333
712 1 0.189692 0.653053 0.18861
713 1 0.200663 0.838738 0.161003
714 1 0.204229 0.79783 0.169466
715 1 0.200685 0.589013 0.222147
716 1 0.197034 0.65285 0.199308
717 1 0.207854 0.835747 0.15815
718 1 0.211738 0.800826 0.166787
719 1 0.207989 0.589757 0.226034
720 1 0.20438 0.656261 0.206389
721 1 0.215368 0.846281 0.153805
722 1 0.218968 0.805304 0.167633
723 1 0.215437 0.597522 0.23485
724 1 0.211627 0.658217 0.216305
725 1 0.222632 0.847084 0.151853
726 1 0.226366 0.802663 0.155568
727 1 0.222643 0.598627 0.222696
728 1 0.219153 0.667267 0.212725
729 1 0.230155 0.837633 0.146468
730 1 0.233665 0.789076 0.15689
731 1 0.230116 0.591543 0.215833
732 1 0.226386 0.657509 0.201073
733 1 0.237498 0.824832 0.147767
734 1 0.24122 0.784298 0.156017
735 1 0.237377 0.578492 0.20971
736 1 0.233854 0.6521 0.201102
737 1 0.244655 0.827495 0.142204
738 1 0.248211 0.783349 0.144301
739 1 0.244784 0.578225 0.197998
740 1 0.241052 0.639617 0.188991
741 1 0.251923 0.833075 0.130088
742 1 0.2556 0.791408 0.144583
743 1 0.252221 0.577604 0.199998
744 1 0.24841 0.643335 0.183475
745 1 0.259228 0.836208 0.147153
746 1 0.262935 0.794702 0.156537
747 1 0.259412 0.57863 0.196649
748 1 0.255816 0.643851 0.179
749 1 0.26665 0.836762 0.149894
750 1 0.270313 0.793507 0.152616
751 1 0.266873 0.580447 0.205252
752 1 0.263156 0.649229 0.187319
753 1 0.274096 0.833441 0.142775
754 1 0.277668 0.788229 0.151116
755 1 0.274111 0.585833 0.211083
756 1 0.27042 0.65013 0.186007
757 1 0.281507 0.82799 0.145744
758 1 0.285312 0.786611 0.151025
759 1 0.281439 0.583686 0.215203
760 1 0.277829 0.649537 0.190337
761 1 0.288982 0.826334 0.138825
762 1 0.292547 0.776557 0.154839
763 1 0.288734 0.578762 0.226703
764 1 0.285202 0.646191 0.195121
765 1 0.296185 0.818052 0.143598
766 1 0.299879 0.781729 0.151676
767 1 0.29613 0.578858 0.223491
768 1 0.292383 0.64137 0.202105
769 1 0.303599 0.82461 0.143799
770 1 0.307333 0.784398 0.143189
771 1 0.303659 0.576228 0.213272
772 1 0.29978 0.638964 0.200338
773 1 0.311046 0.823268 0.125426
774 1 0.314682 0.776462 0.138357
775 1 0.310994 0.573584 0.203777
776 1 0.307364 0.638445 0.182049
777 1 0.318395 0.819877 0.12614
778 1 0.322105 0.779671 0.137682
779 1 0.318367 0.56782 0.19771
780 1 0.314804 0.6352 0.178496
781 1 0.325817 0.814126 0.122937
782 1 0.329481 0.772373 0.135397
783 1 0.325795 0.572743 0.202457
784 1 0.322032 0.637245 0.179488
785 1 0.333013 0.813502 0.113146
786 1 0.336507 0.774235 0.122798
787 1 0.332882 0.568614 0.196518
788 1 0.329407 0.635567 0.177438
789 1 0.340087 0.814111 0.106216
790 1 0.34383 0.774728 0.1115
791 1 0.340206 0.567725 0.198079
792 1 0.336581 0.634929 0.173347
793 1 0.347515 0.812076 0.0938057
794 1 0.351288 0.770194 0.111046
795 1 0.347622 0.572863 0.20001
796 1 0.344031 0.635551 0.171762
797 1 0.355088 0.798431 0.0890582
798 1 0.358641 0.758733 0.102489
799 1 0.355015 0.574022 0.199449
800 1 0.35139 0.63724 0.177554
801 1 0.362202 0.798334 0.0872385
802 1 0.365817 0.758377 0.105613
803 1 0.362189 0.56979 0.193965
804 1 0.358731 0.629181 0.167869
805 1 0.36959 0.79725 0.091474
806 1 0.373235 0.760842 0.104949
807 1 0.369541 0.57111 0.199514
808 1 0.366122 0.628467 0.167454
809 1 0.376821 0.801076 0.0800684
810 1 0.380524 0.76982 0.0951604
811 1 0.376981 0.570676 0.188812
812 1 0.373249 0.630216 0.165805
813 1 0.384217 0.800583 0.0794804
814 1 0.387909 0.762601 0.0942996
815 1 0.384279 0.56972 0.195503
816 1 0.380676 0.633806 0.157107
817 1 0.391515 0.799708 0.0712205
818 1 0.395189 0.771816 0.102283
819 1 0.391504 0.579149 0.203744
820 1 0.387855 0.634917 0.167907
821 1 0.398787 0.805224 0.0849777
822 1 0.402331 0.762805 0.103333
823 1 0.398758 0.571258 0.200783
824 1 0.395215 0.635475 0.172349
825 1 0.405984 0.811853 0.0874376
826 1 0.40958 0.773778 0.114465
827 1 0.406107 0.576044 0.200907
828 1 0.40237 0.633574 0.168507
829 1 0.413364 0.806992 0.0942283
830 1 0.416875 0.770036 0.117671
831 1 0.413449 0.573616 0.205332
832 1 0.409881 0.634756 0.172623
833 1 0.420706 0.795488 0.0920452
834 1 0.424389 0.752344 0.103984
835 1 0.420741 0.581476 0.21972
836 1 0.417095 0.640362 0.182104
837 1 0.427967 0.792932 0.0822213
838 1 0.431796 0.760946 0.107817
839 1 0.428177 0.57938 0.209189
840 1 0.424475 0.63294 0.180334
841 1 0.435573 0.788096 0.0788097
842 1 0.439307 0.745012 0.095739
843 1 0.4354 0.577239 0.214931
844 1 0.431879 0.6296 0.17599
845 1 0.443054 0.774508 0.0629413
846 1 0.446638 0.729081 0.079065
847 1 0.442839 0.565957 0.209403
848 1 0.439139 0.628413 0.179131
849 1 0.450296 0.757725 0.0581653
850 1 0.453939 0.715011 0.0771242
851 1 0.450219 0.560975 0.211622
852 1 0.446669 0.614138 0.166649
853 1 0.457836 0.742984 0.05749
854 1 0.461541 0.716508 0.0959143
855 1 0.457504 0.562261 0.216083
856 1 0.45376 0.610303 0.168279
857 1 0.465267 0.742937 0.0739135
858 1 0.469099 0.710222 0.10095
859 1 0.464823 0.552665 0.222142
860 1 0.461177 0.610821 0.184804
861 1 0.472875 0.732708 0.0672202
862 1 0.476583 0.696546 0.0991944
863 1 0.472063 0.54605 0.231861
864 1 0.468405 0.59814 0.187122
865 1 0.480397 0.709185 0.0828951
866 1 0.484179 0.6557 0.125991
867 1 0.47945 0.533963 0.256821
868 1 0.476019 0.594558 0.201826
869 1 0.488423 0.644313 0.128704
870 1 0.492174 0.568152 0.172427
871 1 0.486715 0.503745 0.294098
872 1 0.483616 0.567483 0.226979
873 1 0.496374 0.493321 0.177929
874 1 0.49994 0.436073 0.242191
875 1 0.494003 0.449088 0.360835
876 1 0.49095 0.503178 0.280334
877 1 0.503983 0.412246 0.280744
878 1 0.50702 0.414292 0.367388
879 1 0.500712 0.435321 0.464155
880 1 0.498211 0.444029 0.357736
881 1 0.510555 0.457847 0.414103
882 1 0.512981 0.513309 0.507807
883 1 0.506677 0.469999 0.588888
884 1 0.504744 0.442561 0.473992
885 1 0.515733 0.609594 0.554788
886 1 0.516945 0.712433 0.640148
887 1 0.511151 0.620303 0.710263
888 1 0.510203 0.52851 0.605005
889 1 0.518601 0.848033 0.6479
890 1 0.517781 0.989639 0.603324
891 1 0.512904 0.873585 0.749958
892 1 0.513902 0.728727 0.713467
893 1 0.517082 1.0315 0.480227
894 1 0.514773 1.00351 0.382708
895 1 0.510632 1.00528 0.564218
896 1 0.513862 0.978312 0.651737
897 1 0.514627 0.929283 0.275035
898 1 0.51241 0.862123 0.202612
899 1 0.507938 0.938962 0.353245
900 1 0.510977 0.987959 0.432693
901 1 0.512448 0.765882 0.109379
902 1 0.510291 0.688721 0.0406448
903 1 0.505737 0.818519 0.15238
904 1 0.508525 0.881818 0.230369
905 1 0.510034 0.552877 -0.0066003
906 1 0.507786 0.442537 -0.013577
907 1 0.503518 0.639639 0.00215513
908 1 0.506595 0.72363 0.0539381
909 1 0.507259 0.321956 0.0629556
910 1 0.505019 0.258871 0.135656