ITEM: TIMESTEP
500000
ITEM: NUMBER OF ATOMS
1216
ITEM: BOX BOUNDS ss ss ss
-0.0318707 360.503
-1.71805 9.50729
2.66971 14.0454
ITEM: ATOMS id type xs ys zs
1 1 0.00353492 0.433401 0.168053
2 1 0.00691242 0.368799 0.168038
3 1 0.00349339 0.181128 0.168053
4 1 0.0001 0.242215 0.168046
5 1 0.00351896 0.812218 0.168057
6 1 0.00690843 0.749468 0.168013
7 1 0.00347292 0.55939 0.168048
8 1 0.000101611 0.622431 0.168048
9 1 0.010754 0.427338 0.166909
10 1 0.0144642 0.365672 0.166242
11 1 0.0108649 0.193723 0.168385
12 1 0.00716724 0.230007 0.168299
13 1 0.018137 0.427099 0.161375
14 1 0.0217495 0.36153 0.153983
15 1 0.0182123 0.189225 0.174343
16 1 0.0145383 0.233381 0.167847
17 1 0.0255787 0.420207 0.15101
18 1 0.0292025 0.356559 0.166741
19 1 0.0254933 0.186656 0.186394
20 1 0.0218654 0.229845 0.170418
21 1 0.0329268 0.419987 0.158256
22 1 0.0365651 0.358642 0.16785
23 1 0.0328128 0.183584 0.185153
24 1 0.0290615 0.223008 0.185905
25 1 0.0400919 0.424158 0.17265
26 1 0.0438958 0.36341 0.17408
27 1 0.0402395 0.188065 0.190103
28 1 0.0365129 0.223183 0.176466
29 1 0.0475051 0.423707 0.174891
30 1 0.0511665 0.364799 0.180907
31 1 0.0474806 0.192241 0.188231
32 1 0.0437751 0.229093 0.18295
33 1 0.0548947 0.424337 0.183041
34 1 0.0585906 0.36226 0.181181
35 1 0.0548158 0.192632 0.188865
36 1 0.0511458 0.230315 0.188745
37 1 0.0622189 0.427204 0.186028
38 1 0.065751 0.361827 0.187326
39 1 0.0621399 0.185817 0.192229
40 1 0.0584846 0.229093 0.183722
41 1 0.069686 0.414923 0.183817
42 1 0.0733381 0.348946 0.18744
43 1 0.0695648 0.183475 0.196246
44 1 0.0658235 0.226413 0.193123
45 1 0.0769088 0.414461 0.187278
46 1 0.0805622 0.352542 0.191258
47 1 0.0769705 0.18157 0.202735
48 1 0.073198 0.217531 0.196848
49 1 0.0842568 0.409694 0.183393
50 1 0.088003 0.349886 0.182363
51 1 0.084307 0.181086 0.202488
52 1 0.0806398 0.221807 0.201789
53 1 0.0915601 0.413092 0.178034
54 1 0.095264 0.348024 0.187491
55 1 0.0915745 0.177704 0.199851
56 1 0.0879956 0.221157 0.191966
57 1 0.0990157 0.414844 0.176603
58 1 0.102595 0.355329 0.18171
59 1 0.0990644 0.175692 0.1934
60 1 0.095356 0.214835 0.198361
61 1 0.106264 0.418849 0.178234
62 1 0.109875 0.358018 0.191183
63 1 0.106248 0.186873 0.202405
64 1 0.102588 0.221938 0.194516
65 1 0.113549 0.422777 0.187701
66 1 0.117296 0.366271 0.195688
67 1 0.113663 0.193353 0.21498
68 1 0.109906 0.22563 0.205296
69 1 0.120876 0.427685 0.180667
70 1 0.124545 0.365366 0.186625
71 1 0.121068 0.203955 0.228539
72 1 0.11726 0.234774 0.217716
73 1 0.128082 0.424618 0.175896
74 1 0.131728 0.362427 0.19119
75 1 0.128298 0.202052 0.225991
76 1 0.124634 0.243725 0.215585
77 1 0.13558 0.422798 0.178906
78 1 0.139207 0.365226 0.20105
79 1 0.135639 0.196263 0.239348
80 1 0.132003 0.235786 0.224134
81 1 0.143058 0.4256 0.177305
82 1 0.146712 0.371063 0.202055
83 1 0.143091 0.204932 0.242106
84 1 0.139419 0.238212 0.235027
85 1 0.150442 0.428048 0.182246
86 1 0.154159 0.368443 0.199939
87 1 0.150314 0.200377 0.246117
88 1 0.146724 0.243294 0.236899
89 1 0.15777 0.431413 0.183011
90 1 0.161557 0.373315 0.197317
91 1 0.157782 0.199824 0.240166
92 1 0.154021 0.23813 0.230308
93 1 0.165137 0.430601 0.182134
94 1 0.168786 0.376661 0.202056
95 1 0.165028 0.207974 0.246578
96 1 0.16138 0.248919 0.228895
97 1 0.172294 0.435883 0.186142
98 1 0.17608 0.374992 0.207126
99 1 0.172293 0.207733 0.237401
100 1 0.168793 0.25091 0.23204
101 1 0.179711 0.438874 0.191154
102 1 0.183299 0.380481 0.211603
103 1 0.179841 0.207861 0.250528
104 1 0.176143 0.241126 0.236178
105 1 0.18699 0.440295 0.190654
106 1 0.190587 0.373037 0.201077
107 1 0.186965 0.214081 0.263406
108 1 0.183413 0.253971 0.247219
109 1 0.194295 0.428831 0.178294
110 1 0.197985 0.368375 0.201091
111 1 0.194267 0.214703 0.263195
112 1 0.190632 0.251137 0.249544
113 1 0.201652 0.431625 0.18314
114 1 0.205182 0.369197 0.200206
115 1 0.201598 0.209085 0.26103
116 1 0.198034 0.245008 0.24633
117 1 0.20898 0.429684 0.18401
118 1 0.212691 0.375926 0.209102
119 1 0.209007 0.21399 0.262481
120 1 0.205237 0.244242 0.246199
121 1 0.216364 0.434469 0.195723
122 1 0.220092 0.376373 0.224702
123 1 0.216414 0.215439 0.279177
124 1 0.212759 0.252107 0.255032
125 1 0.22372 0.434189 0.198632
126 1 0.227607 0.375502 0.225518
127 1 0.223886 0.216388 0.295699
128 1 0.220267 0.252717 0.274985
129 1 0.231167 0.434603 0.198458
130 1 0.234785 0.378687 0.220217
131 1 0.231143 0.219341 0.285381
132 1 0.227491 0.253032 0.279287
133 1 0.23847 0.437529 0.201831
134 1 0.242149 0.38156 0.226433
135 1 0.238538 0.216889 0.273911
136 1 0.234743 0.252903 0.260462
137 1 0.245885 0.430487 0.198003
138 1 0.249519 0.37442 0.217196
139 1 0.245891 0.215643 0.277961
140 1 0.242079 0.255508 0.268998
141 1 0.253262 0.432833 0.201702
142 1 0.256996 0.367675 0.216475
143 1 0.253145 0.203905 0.266328
144 1 0.249586 0.247428 0.255544
145 1 0.260578 0.427276 0.20212
146 1 0.264193 0.372783 0.23389
147 1 0.26064 0.209606 0.286507
148 1 0.256897 0.240529 0.260638
149 1 0.26789 0.429707 0.201608
150 1 0.271708 0.381414 0.226392
151 1 0.268024 0.22098 0.300893
152 1 0.264297 0.25024 0.285351
153 1 0.275156 0.435553 0.195667
154 1 0.278898 0.37994 0.220128
155 1 0.275317 0.228495 0.289698
156 1 0.271641 0.263552 0.281537
157 1 0.282574 0.438352 0.189928
158 1 0.286271 0.381776 0.221119
159 1 0.282448 0.223504 0.283173
160 1 0.278842 0.259331 0.266068
161 1 0.289988 0.438041 0.198833
162 1 0.293627 0.382856 0.228276
163 1 0.28972 0.223302 0.288833
164 1 0.286071 0.256646 0.275046
165 1 0.297327 0.440175 0.211249
166 1 0.300953 0.38648 0.225495
167 1 0.297406 0.224927 0.293596
168 1 0.293681 0.255376 0.279949
169 1 0.304584 0.44025 0.197647
170 1 0.308242 0.387812 0.224846
171 1 0.304598 0.223273 0.288841
172 1 0.30098 0.262795 0.276766
173 1 0.311971 0.4482 0.210898
174 1 0.315592 0.390317 0.234786
175 1 0.31192 0.224957 0.289207
176 1 0.308169 0.259993 0.275365
177 1 0.319246 0.447386 0.221166
178 1 0.322758 0.385664 0.232299
179 1 0.319366 0.221349 0.282244
180 1 0.315615 0.262224 0.269748
181 1 0.326507 0.439114 0.209104
182 1 0.330203 0.38191 0.23285
183 1 0.326613 0.226872 0.293351
184 1 0.322903 0.262056 0.274636
185 1 0.334092 0.435153 0.206433
186 1 0.337656 0.376835 0.225307
187 1 0.334141 0.22324 0.300855
188 1 0.330429 0.257838 0.287472
189 1 0.341298 0.435179 0.206783
190 1 0.345115 0.379163 0.238579
191 1 0.341386 0.226539 0.305412
192 1 0.337775 0.260504 0.284546
193 1 0.348768 0.434826 0.215445
194 1 0.35249 0.381175 0.249286
195 1 0.348705 0.225655 0.325822
196 1 0.34508 0.25794 0.299488
197 1 0.35612 0.439065 0.227008
198 1 0.359823 0.384175 0.2554
199 1 0.356094 0.235751 0.337493
200 1 0.352344 0.261786 0.30864
201 1 0.363426 0.440504 0.234825
202 1 0.366766 0.385029 0.264531
203 1 0.363249 0.230187 0.34401
204 1 0.359751 0.266569 0.317435
205 1 0.370681 0.437616 0.238583
206 1 0.374315 0.384774 0.276249
207 1 0.370689 0.230976 0.350982
208 1 0.366855 0.26472 0.329607
209 1 0.377957 0.435499 0.243912
210 1 0.381535 0.378987 0.268914
211 1 0.377885 0.238205 0.366582
212 1 0.37434 0.270191 0.342911
213 1 0.385388 0.428395 0.236712
214 1 0.388889 0.368847 0.266868
215 1 0.385054 0.23854 0.368161
216 1 0.381495 0.272614 0.344956
217 1 0.392428 0.423559 0.246182
218 1 0.396203 0.37176 0.291219
219 1 0.392506 0.225367 0.371089
220 1 0.388729 0.261396 0.343627
221 1 0.399945 0.429357 0.264673
222 1 0.40363 0.377431 0.287685
223 1 0.399778 0.225771 0.378604
224 1 0.396169 0.261422 0.358508
225 1 0.407417 0.430211 0.256465
226 1 0.411014 0.373783 0.288484
227 1 0.407041 0.227011 0.375085
228 1 0.403396 0.264309 0.357783
229 1 0.414747 0.421519 0.256729
230 1 0.418355 0.364734 0.289547
231 1 0.414467 0.222616 0.380145
232 1 0.410805 0.258985 0.356472
233 1 0.422359 0.412192 0.266396
234 1 0.425859 0.360091 0.301797
235 1 0.421872 0.216269 0.378117
236 1 0.418195 0.257635 0.359604
237 1 0.429527 0.409884 0.272269
238 1 0.433052 0.355487 0.307247
239 1 0.429233 0.210362 0.392761
240 1 0.42563 0.244977 0.3666
241 1 0.436873 0.402977 0.276271
242 1 0.440411 0.349635 0.319408
243 1 0.436451 0.214306 0.411395
244 1 0.432936 0.242106 0.378162
245 1 0.444172 0.397939 0.285142
246 1 0.447588 0.337937 0.319931
247 1 0.44373 0.207539 0.413354
248 1 0.440077 0.247396 0.395394
249 1 0.451397 0.380009 0.283827
250 1 0.454859 0.314478 0.310713
251 1 0.450781 0.189199 0.411872
252 1 0.447339 0.2334 0.392373
253 1 0.458651 0.354087 0.273195
254 1 0.462013 0.299555 0.317162
255 1 0.45794 0.164062 0.411266
256 1 0.454467 0.208804 0.38502
257 1 0.465875 0.345257 0.292743
258 1 0.469286 0.284824 0.33944
259 1 0.464898 0.154915 0.430706
260 1 0.461554 0.193651 0.393903
261 1 0.473052 0.323012 0.311711
262 1 0.476394 0.268319 0.362574
263 1 0.472164 0.143069 0.458035
264 1 0.468672 0.17944 0.417612
265 1 0.480062 0.313655 0.344517
266 1 0.483327 0.272895 0.409299
267 1 0.479132 0.14268 0.499155
268 1 0.475886 0.168592 0.446919
269 1 0.487078 0.31881 0.406276
270 1 0.489887 0.306394 0.493077
271 1 0.486062 0.168079 0.549894
272 1 0.482741 0.176815 0.492563
273 1 0.49339 0.362887 0.509603
274 1 0.49573 0.364185 0.612569
275 1 0.491739 0.23278 0.671398
276 1 0.48933 0.221562 0.583926
277 1 0.499383 0.410506 0.62631
278 1 0.501336 0.431992 0.73606
279 1 0.496756 0.329269 0.809923
280 1 0.494618 0.297647 0.715408
281 1 0.504842 0.499671 0.744956
282 1 0.505922 0.567561 0.855257
283 1 0.501186 0.453583 0.939166
284 1 0.499863 0.391638 0.845868
285 1 0.508099 0.679117 0.837384
286 1 0.506607 0.796156 0.878134
287 1 0.502758 0.669384 0.981804
288 1 0.503292 0.550472 0.952441
289 1 0.507626 0.898055 0.800236
290 1 0.504543 0.944209 0.718469
291 1 0.501009 0.866078 0.874634
292 1 0.503099 0.789653 0.949902
293 1 0.505294 0.95383 0.586106
294 1 0.502396 0.916956 0.496985
295 1 0.498522 0.894975 0.664587
296 1 0.500711 0.908918 0.764346
297 1 0.502958 0.877792 0.375081
298 1 0.500286 0.822546 0.292363
299 1 0.496301 0.848789 0.453765
300 1 0.498489 0.891784 0.541957
301 1 0.50117 0.759396 0.180613
302 1 0.498316 0.69855 0.108825
303 1 0.494184 0.768899 0.245888
304 1 0.496405 0.813039 0.339752
305 1 0.499441 0.59506 0.0352366
306 1 0.496565 0.503056 0.00745054
307 1 0.492403 0.642406 0.0573571
308 1 0.494381 0.712504 0.135755
309 1 0.497425 0.37703 0.0390164
310 1 0.49443 0.298675 0.0879477
311 1 0.490331 0.43008 0.00489028
312 1 0.49255 0.531736 -0.00457199
313 1 0.495374 0.221776 0.187487
314 1 0.492606 0.16263 0.262805
315 1 0.488385 0.241254 0.126446
316 1 0.490544 0.317742 0.0584273
317 1 0.493161 0.104718 0.380697
318 1 0.490198 0.054997 0.458464
319 1 0.486444 0.0981903 0.301574
320 1 0.488639 0.165012 0.222997
321 1 0.490682 0.0393016 0.593386
322 1 0.487395 0.0437139 0.680561
323 1 0.484055 -0.00427135 0.496869
324 1 0.48642 0.0372645 0.409035
325 1 0.487792 0.138542 0.769429
326 1 0.485962 0.25363 0.753338
327 1 0.481703 0.129432 0.667298
328 1 0.483375 0.0180344 0.621403
329 1 0.488319 0.360403 0.758899
330 1 0.488819 0.442311 0.657559
331 1 0.483502 0.354834 0.596523
332 1 0.482655 0.255459 0.674881
333 1 0.492281 0.521757 0.639438
334 1 0.493656 0.556003 0.522826
335 1 0.487778 0.504103 0.461966
336 1 0.486122 0.438918 0.557187
337 1 0.497606 0.590582 0.507201
338 1 0.499891 0.597634 0.400064
339 1 0.494026 0.584616 0.321339
340 1 0.491313 0.550532 0.418307
341 1 0.50389 0.607974 0.392115
342 1 0.506801 0.584653 0.299475
343 1 0.501381 0.562216 0.209006
344 1 0.49798 0.593407 0.28338
345 1 0.510941 0.593586 0.301995
346 1 0.514027 0.542459 0.233242
347 1 0.5089 0.45875 0.179564
348 1 0.505306 0.525846 0.196551
349 1 0.518213 0.561597 0.262499
350 1 0.521506 0.495939 0.215249
351 1 0.516727 0.38599 0.126492
352 1 0.51308 0.441614 0.158935
353 1 0.525438 0.533988 0.243906
354 1 0.528992 0.476914 0.19295
355 1 0.524321 0.351272 0.110686
356 1 0.520753 0.393791 0.134348
357 1 0.532937 0.516573 0.220967
358 1 0.536476 0.460852 0.179288
359 1 0.532047 0.324742 0.0955514
360 1 0.528422 0.363404 0.12409
361 1 0.540197 0.503441 0.203808
362 1 0.543779 0.444288 0.169976
363 1 0.539703 0.306794 0.0885795
364 1 0.536019 0.345867 0.110275
365 1 0.547697 0.488076 0.197142
366 1 0.551342 0.43647 0.15533
367 1 0.547224 0.299643 0.0727752
368 1 0.543527 0.329473 0.0965672
369 1 0.555111 0.473617 0.190589
370 1 0.558807 0.418056 0.155722
371 1 0.554606 0.283713 0.0583747
372 1 0.550953 0.321738 0.0895188
373 1 0.56241 0.465959 0.183799
374 1 0.566143 0.412185 0.146581
375 1 0.562071 0.270636 0.0582272
376 1 0.55835 0.31016 0.077316
377 1 0.569986 0.465086 0.174567
378 1 0.573348 0.405318 0.145958
379 1 0.569453 0.262915 0.0599476
380 1 0.565764 0.298474 0.0833443
381 1 0.57715 0.454507 0.176055
382 1 0.580842 0.399929 0.142104
383 1 0.576779 0.256639 0.0546783
384 1 0.573152 0.295118 0.0769625
385 1 0.584668 0.44093 0.178296
386 1 0.588361 0.384365 0.138193
387 1 0.584311 0.246679 0.0444119
388 1 0.580541 0.282626 0.0694893
389 1 0.592079 0.433153 0.172505
390 1 0.595761 0.372631 0.143355
391 1 0.591835 0.237673 0.0375223
392 1 0.588206 0.271874 0.0683031
393 1 0.599326 0.432476 0.164194
394 1 0.603046 0.382721 0.130236
395 1 0.59926 0.230391 0.0435854
396 1 0.595518 0.262822 0.0666004
397 1 0.606742 0.438467 0.157448
398 1 0.61039 0.377025 0.128159
399 1 0.60663 0.22834 0.0498911
400 1 0.60295 0.263854 0.0671118
401 1 0.613967 0.436167 0.15857
402 1 0.61769 0.381782 0.139484
403 1 0.614105 0.23015 0.0527745
404 1 0.610335 0.265812 0.0637009
405 1 0.621334 0.442327 0.15153
406 1 0.624998 0.381545 0.1233
407 1 0.621304 0.230068 0.0530861
408 1 0.617705 0.267014 0.0757504
409 1 0.628544 0.441357 0.148295
410 1 0.632236 0.386818 0.120577
411 1 0.628565 0.223411 0.0600498
412 1 0.624951 0.265523 0.0704567
413 1 0.635929 0.446508 0.140999
414 1 0.639535 0.380071 0.130064
415 1 0.635899 0.214258 0.083937
416 1 0.632346 0.256033 0.0813736
417 1 0.643335 0.439443 0.152196
418 1 0.64694 0.38294 0.131897
419 1 0.643337 0.217564 0.0904515
420 1 0.639483 0.253133 0.101329
421 1 0.650629 0.440449 0.157441
422 1 0.65447 0.379697 0.143664
423 1 0.650591 0.217166 0.0847929
424 1 0.64704 0.255422 0.098434
425 1 0.6582 0.440737 0.17708
426 1 0.661663 0.382533 0.155911
427 1 0.658038 0.218797 0.0860134
428 1 0.654331 0.256779 0.0956838
429 1 0.665426 0.442771 0.177312
430 1 0.669071 0.385671 0.152353
431 1 0.665479 0.220983 0.0968012
432 1 0.661632 0.260519 0.108073
433 1 0.672668 0.437412 0.180256
434 1 0.676221 0.376089 0.160111
435 1 0.672625 0.217831 0.10414
436 1 0.669115 0.260081 0.116392
437 1 0.67991 0.432949 0.182488
438 1 0.683671 0.371016 0.164146
439 1 0.680126 0.216344 0.106084
440 1 0.676442 0.250794 0.117628
441 1 0.687378 0.431782 0.1863
442 1 0.690964 0.377338 0.165475
443 1 0.687376 0.208522 0.101761
444 1 0.683899 0.24852 0.115967
445 1 0.694694 0.437462 0.176364
446 1 0.698546 0.373754 0.157247
447 1 0.694752 0.207409 0.115636
448 1 0.691097 0.247434 0.1258
449 1 0.702059 0.437404 0.170868
450 1 0.705679 0.380417 0.156932
451 1 0.702186 0.210837 0.108308
452 1 0.698379 0.246991 0.120512
453 1 0.709287 0.437688 0.17575
454 1 0.712946 0.379993 0.167757
455 1 0.709458 0.216537 0.12177
456 1 0.705778 0.255598 0.121739
457 1 0.716703 0.438916 0.182347
458 1 0.720475 0.379852 0.171357
459 1 0.716751 0.20746 0.136637
460 1 0.71306 0.250845 0.138013
461 1 0.724157 0.434937 0.188072
462 1 0.72792 0.37383 0.172831
463 1 0.724079 0.209413 0.13023
464 1 0.720407 0.250171 0.143466
465 1 0.73156 0.431772 0.180922
466 1 0.735156 0.369857 0.164934
467 1 0.731478 0.206381 0.128915
468 1 0.727756 0.247526 0.140955
469 1 0.73882 0.432777 0.177413
470 1 0.742526 0.379164 0.157797
471 1 0.738949 0.211923 0.117914
472 1 0.735264 0.246664 0.129217
473 1 0.74627 0.432516 0.159308
474 1 0.749999 0.373524 0.153456
475 1 0.746361 0.205841 0.116936
476 1 0.742728 0.246511 0.127006
477 1 0.753699 0.433406 0.16876
478 1 0.757618 0.379423 0.148803
479 1 0.753696 0.208798 0.118432
480 1 0.750063 0.243322 0.121273
481 1 0.761312 0.435993 0.155436
482 1 0.764946 0.372215 0.157098
483 1 0.761167 0.209856 0.117506
484 1 0.757463 0.245181 0.124392
485 1 0.768512 0.432254 0.171185
486 1 0.772195 0.368914 0.156834
487 1 0.768534 0.199293 0.113376
488 1 0.764925 0.2444 0.124692
489 1 0.775834 0.430261 0.167736
490 1 0.779571 0.371189 0.154694
491 1 0.775965 0.202399 0.110218
492 1 0.772252 0.235876 0.126421
493 1 0.783432 0.433122 0.166196
494 1 0.787032 0.370005 0.154587
495 1 0.783335 0.202946 0.116456
496 1 0.779616 0.241578 0.119232
497 1 0.790758 0.428723 0.162664
498 1 0.794503 0.364953 0.150413
499 1 0.790699 0.195423 0.126936
500 1 0.787047 0.236562 0.133448
501 1 0.798073 0.427002 0.16428
502 1 0.801733 0.366716 0.156604
503 1 0.798172 0.194429 0.121933
504 1 0.794432 0.236269 0.12768
505 1 0.805451 0.432536 0.162273
506 1 0.809036 0.370757 0.153316
507 1 0.805466 0.201689 0.120418
508 1 0.801783 0.23882 0.13108
509 1 0.812641 0.430038 0.164202
510 1 0.816503 0.371943 0.158643
511 1 0.812849 0.210876 0.121814
512 1 0.80906 0.243378 0.126424
513 1 0.820089 0.436765 0.167529
514 1 0.823787 0.375243 0.157762
515 1 0.820022 0.203604 0.135021
516 1 0.816516 0.246343 0.131278
517 1 0.82748 0.439238 0.161935
518 1 0.831021 0.371727 0.149136
519 1 0.827294 0.206111 0.142608
520 1 0.823738 0.242765 0.14376
521 1 0.834793 0.430844 0.162756
522 1 0.838502 0.365478 0.159172
523 1 0.834613 0.195918 0.14131
524 1 0.831075 0.236501 0.137063
525 1 0.842217 0.429259 0.165304
526 1 0.845772 0.367045 0.163982
527 1 0.842084 0.19764 0.144894
528 1 0.838347 0.237295 0.14283
529 1 0.849499 0.429162 0.16415
530 1 0.853149 0.369393 0.157026
531 1 0.849698 0.192602 0.14957
532 1 0.845779 0.235655 0.155341
533 1 0.856987 0.428823 0.157866
534 1 0.860803 0.368184 0.160132
535 1 0.856985 0.192902 0.149902
536 1 0.853349 0.234639 0.15362
537 1 0.864438 0.431287 0.157733
538 1 0.868234 0.36722 0.155035
539 1 0.864425 0.196334 0.134198
540 1 0.860733 0.235349 0.146087
541 1 0.871881 0.429638 0.159491
542 1 0.875468 0.364844 0.162304
543 1 0.871866 0.191587 0.141555
544 1 0.868136 0.234188 0.142744
545 1 0.879177 0.427398 0.173532
546 1 0.882841 0.360126 0.171177
547 1 0.879159 0.185843 0.154534
548 1 0.875508 0.231266 0.151071
549 1 0.886529 0.42373 0.177936
550 1 0.890294 0.362324 0.173886
551 1 0.886681 0.187791 0.149066
552 1 0.88298 0.224754 0.155333
553 1 0.893891 0.42352 0.174176
554 1 0.897586 0.360359 0.175854
555 1 0.893843 0.189478 0.166635
556 1 0.890203 0.230183 0.164569
557 1 0.901194 0.426365 0.179739
558 1 0.904925 0.365348 0.182098
559 1 0.90138 0.192888 0.184471
560 1 0.897641 0.230909 0.17648
561 1 0.908522 0.42858 0.173745
562 1 0.912262 0.372561 0.168162
563 1 0.908661 0.197043 0.167948
564 1 0.904976 0.234771 0.177484
565 1 0.915928 0.433696 0.164868
566 1 0.919605 0.371874 0.162629
567 1 0.915937 0.192704 0.167578
568 1 0.912256 0.234471 0.166345
569 1 0.923204 0.435405 0.154605
570 1 0.926842 0.371794 0.1607
571 1 0.923098 0.201118 0.168091
572 1 0.919417 0.238507 0.169158
573 1 0.930446 0.435337 0.162528
574 1 0.934091 0.37437 0.164173
575 1 0.930475 0.199356 0.171704
576 1 0.926851 0.240714 0.170256
577 1 0.937741 0.434716 0.16492
578 1 0.941331 0.371234 0.165524
579 1 0.937838 0.203241 0.171165
580 1 0.934105 0.240447 0.16763
581 1 0.945168 0.43281 0.161116
582 1 0.948851 0.370914 0.163297
583 1 0.944994 0.200551 0.173112
584 1 0.941422 0.241146 0.170994
585 1 0.952459 0.433441 0.164878
586 1 0.956162 0.371101 0.164639
587 1 0.95245 0.198883 0.167398
588 1 0.948735 0.23315 0.168604
589 1 0.959807 0.430103 0.154412
590 1 0.963426 0.365144 0.152506
591 1 0.959846 0.196684 0.155745
592 1 0.956166 0.234147 0.165295
593 1 0.967256 0.430106 0.170608
594 1 0.970855 0.367149 0.165351
595 1 0.967262 0.192936 0.158691
596 1 0.963595 0.229982 0.155129
597 1 0.97444 0.426837 0.164085
598 1 0.978216 0.371036 0.161286
599 1 0.974712 0.191855 0.157893
600 1 0.971003 0.231925 0.157465
601 1 0.981774 0.433906 0.163691
602 1 0.985539 0.374313 0.165083
603 1 0.982013 0.201708 0.158144
604 1 0.978227 0.238182 0.156251
605 1 0.989239 0.43499 0.166527
606 1 0.992918 0.372925 0.167689
607 1 0.989313 0.205791 0.166966
608 1 0.985591 0.242355 0.165443
609 1 0.0106867 0.786511 0.165107
610 1 0.0144105 0.750016 0.162024
611 1 0.0107627 0.557339 0.166128
612 1 0.00708202 0.619352 0.167749
613 1 0.0180746 0.783566 0.165009
614 1 0.0217419 0.746906 0.163116
615 1 0.0182498 0.55726 0.163059
616 1 0.0144622 0.618061 0.163376
617 1 0.0254472 0.785455 0.168206
618 1 0.0291317 0.745105 0.164728
619 1 0.025416 0.550624 0.153693
620 1 0.0217518 0.613957 0.160402
621 1 0.0328035 0.786153 0.155955
622 1 0.0364204 0.745446 0.152236
623 1 0.0328176 0.547456 0.149255
624 1 0.0290708 0.614679 0.156385
625 1 0.0400461 0.790644 0.155675
626 1 0.0437045 0.748158 0.160919
627 1 0.0399208 0.554028 0.165682
628 1 0.0363232 0.615037 0.151842
629 1 0.0473705 0.785382 0.168092
630 1 0.0511118 0.748419 0.164543
631 1 0.047436 0.552846 0.165711
632 1 0.0436041 0.61595 0.161587
633 1 0.0548897 0.786058 0.168171
634 1 0.0585499 0.748535 0.169227
635 1 0.0548252 0.557477 0.168657
636 1 0.0511742 0.618648 0.166068
637 1 0.0621814 0.789572 0.162642
638 1 0.0658746 0.746506 0.16916
639 1 0.0622244 0.556694 0.182181
640 1 0.0586356 0.61901 0.176444
641 1 0.0695712 0.7823 0.155455
642 1 0.0731923 0.743828 0.156899
643 1 0.069639 0.552982 0.176056
644 1 0.0660416 0.614196 0.176753
645 1 0.0768687 0.777184 0.148038
646 1 0.0804771 0.735315 0.151052
647 1 0.0769673 0.54444 0.168645
648 1 0.0734597 0.609775 0.167106
649 1 0.0841576 0.775692 0.159168
650 1 0.0877614 0.734388 0.152155
651 1 0.084362 0.541256 0.167949
652 1 0.0806082 0.603052 0.165317
653 1 0.0914863 0.780748 0.142397
654 1 0.0951815 0.737936 0.138831
655 1 0.091589 0.542099 0.160976
656 1 0.0879544 0.605152 0.157279
657 1 0.0988705 0.778456 0.138852
658 1 0.102585 0.740982 0.147594
659 1 0.0990043 0.541837 0.159133
660 1 0.0953716 0.605853 0.14934
661 1 0.106193 0.780552 0.151158
662 1 0.109956 0.746834 0.153181
663 1 0.106163 0.550565 0.169384
664 1 0.102497 0.608361 0.159862
665 1 0.113542 0.788037 0.147195
666 1 0.117089 0.746664 0.140153
667 1 0.113622 0.551577 0.169818
668 1 0.109776 0.614261 0.169543
669 1 0.120795 0.786725 0.129138
670 1 0.12453 0.748773 0.134608
671 1 0.120752 0.556727 0.160759
672 1 0.117145 0.616134 0.15802
673 1 0.128125 0.785191 0.119197
674 1 0.131814 0.745529 0.124911
675 1 0.128122 0.55246 0.159063
676 1 0.124414 0.616454 0.14887
677 1 0.135379 0.780158 0.116914
678 1 0.139133 0.742613 0.119891
679 1 0.135391 0.552812 0.154655
680 1 0.131692 0.609113 0.144686
681 1 0.142699 0.781865 0.116468
682 1 0.146547 0.747365 0.12495
683 1 0.142902 0.552327 0.144505
684 1 0.139152 0.609728 0.137061
685 1 0.150212 0.783774 0.114765
686 1 0.153823 0.745915 0.116408
687 1 0.15032 0.557419 0.1503
688 1 0.14669 0.615256 0.134515
689 1 0.157478 0.782817 0.10828
690 1 0.161162 0.746155 0.10079
691 1 0.157679 0.557402 0.144416
692 1 0.153935 0.613823 0.133977
693 1 0.164859 0.78662 0.0949332
694 1 0.168726 0.752518 0.103296
695 1 0.165012 0.551511 0.14434
696 1 0.161355 0.611825 0.123221
697 1 0.172496 0.791788 0.0978896
698 1 0.176176 0.749991 0.103834
699 1 0.172521 0.560613 0.144323
700 1 0.168636 0.620983 0.131108
701 1 0.179817 0.788881 0.094733
702 1 0.183509 0.752302 0.107445
703 1 0.179721 0.565439 0.156701
704 1 0.176117 0.620291 0.135755
705 1 0.187195 0.786111 0.087291
706 1 0.190856 0.742803 0.0874467
707 1 0.186956 0.564459 0.155419
708 1 0.183396 0.626523 0.140771
709 1 0.194567 0.776738 0.0720584
710 1 0.198204 0.740914 0.0851724
711 1 0.194338 0.555002 0.138588
712 1 0.190699 0.616964 0.127268
713 1 0.201872 0.774698 0.0768973
714 1 0.205593 0.735737 0.0852183
715 1 0.201639 0.552279 0.137005
716 1 0.198048 0.613308 0.120001
717 1 0.209262 0.774925 0.0729311
718 1 0.212827 0.733565 0.0790873
719 1 0.209162 0.551076 0.146106
720 1 0.205371 0.609292 0.122982
721 1 0.216597 0.76685 0.0632969
722 1 0.220325 0.735083 0.0766546
723 1 0.216469 0.554338 0.151059
724 1 0.212945 0.610316 0.128139
725 1 0.223924 0.771357 0.0549789
726 1 0.227554 0.735164 0.065014
727 1 0.223771 0.553118 0.145727
728 1 0.220177 0.609361 0.119592
729 1 0.231273 0.767872 0.052531
730 1 0.235019 0.737275 0.0817356
731 1 0.231158 0.553717 0.148295
732 1 0.227531 0.612519 0.120016
733 1 0.238569 0.775705 0.0637001
734 1 0.242424 0.739171 0.0686815
735 1 0.238575 0.557892 0.149373
736 1 0.234886 0.611669 0.125766
737 1 0.246085 0.768276 0.0491813
738 1 0.249712 0.729362 0.0605626
739 1 0.245856 0.552235 0.145753
740 1 0.242267 0.613683 0.119268
741 1 0.25344 0.765142 0.0501325
742 1 0.257031 0.725934 0.0726387
743 1 0.253289 0.5567 0.157034
744 1 0.249648 0.613062 0.127689
745 1 0.260691 0.759625 0.054414
746 1 0.2643 0.721108 0.0715652
747 1 0.260646 0.54848 0.153872
748 1 0.256967 0.60922 0.134386
749 1 0.267906 0.762199 0.0518223
750 1 0.271603 0.736779 0.0748517
751 1 0.26806 0.54725 0.14931
752 1 0.264308 0.603588 0.124883
753 1 0.275241 0.772177 0.0546118
754 1 0.278942 0.733111 0.0618566
755 1 0.275373 0.553264 0.141378
756 1 0.271636 0.611784 0.119392
757 1 0.282661 0.760913 0.0445091
758 1 0.286243 0.730351 0.0608664
759 1 0.282597 0.552078 0.134174
760 1 0.279026 0.607732 0.11167
761 1 0.289814 0.777481 0.0569738
762 1 0.293432 0.740031 0.0830656
763 1 0.2898 0.558605 0.150524
764 1 0.286325 0.611828 0.115933
765 1 0.29709 0.773922 0.0725331
766 1 0.300857 0.740131 0.089257
767 1 0.297148 0.56216 0.162477
768 1 0.293495 0.614906 0.129632
769 1 0.304585 0.769867 0.0640935
770 1 0.30829 0.737106 0.0836216
771 1 0.304686 0.557248 0.150063
772 1 0.300846 0.614684 0.138991
773 1 0.311983 0.770689 0.0699454
774 1 0.315612 0.744504 0.0925556
775 1 0.311853 0.567052 0.167391
776 1 0.308256 0.615244 0.133499
777 1 0.319178 0.781546 0.069941
778 1 0.322946 0.745597 0.0813517
779 1 0.319219 0.569808 0.175608
780 1 0.315515 0.631882 0.158998
781 1 0.326702 0.775162 0.065473
782 1 0.330197 0.730504 0.0730659
783 1 0.326569 0.55763 0.153379
784 1 0.322988 0.616747 0.130198
785 1 0.333909 0.770182 0.0544661
786 1 0.337695 0.733811 0.0757419
787 1 0.333963 0.551194 0.154138
788 1 0.330387 0.612301 0.131875
789 1 0.341404 0.768457 0.0664079
790 1 0.34516 0.732929 0.0791189
791 1 0.341337 0.553976 0.15675
792 1 0.337671 0.611546 0.129202
793 1 0.348776 0.770176 0.0689132
794 1 0.352461 0.733114 0.0868084
795 1 0.348733 0.55059 0.160664
796 1 0.345115 0.611138 0.131891
797 1 0.3562 0.769342 0.0758761
798 1 0.359934 0.737938 0.0923153
799 1 0.356029 0.557302 0.171161
800 1 0.352435 0.609672 0.137244
801 1 0.363691 0.770168 0.0710549
802 1 0.367281 0.726803 0.0917425
803 1 0.363491 0.55288 0.177066
804 1 0.359788 0.615691 0.149404
805 1 0.370899 0.767292 0.0724618
806 1 0.374597 0.730689 0.0927852
807 1 0.370839 0.55187 0.176218
808 1 0.367202 0.608986 0.151692
809 1 0.378407 0.758283 0.081626
810 1 0.382025 0.722119 0.0978639
811 1 0.378254 0.550422 0.177842
812 1 0.374552 0.608229 0.150656
813 1 0.385692 0.754048 0.0792838
814 1 0.389185 0.715679 0.0952892
815 1 0.385382 0.54276 0.175125
816 1 0.381943 0.606126 0.155654
817 1 0.392929 0.753887 0.0876829
818 1 0.396512 0.721289 0.114647
819 1 0.392763 0.536606 0.188017
820 1 0.389138 0.595762 0.147833
821 1 0.400213 0.749492 0.0931591
822 1 0.403833 0.709592 0.113358
823 1 0.40005 0.546082 0.207402
824 1 0.396439 0.600848 0.178348
825 1 0.407487 0.742658 0.0861386
826 1 0.411268 0.708745 0.105579
827 1 0.407402 0.542315 0.200262
828 1 0.403753 0.596562 0.175786
829 1 0.415066 0.73932 0.0841875
830 1 0.418769 0.701459 0.102442
831 1 0.414843 0.533516 0.194869
832 1 0.411233 0.592326 0.166512
833 1 0.42251 0.727525 0.087205
834 1 0.426132 0.682323 0.0950716
835 1 0.422381 0.521954 0.202495
836 1 0.418692 0.585838 0.169754
837 1 0.42983 0.713283 0.0736456
838 1 0.433541 0.682514 0.100756
839 1 0.429768 0.518863 0.201723
840 1 0.426162 0.574945 0.168522
841 1 0.43729 0.712753 0.087295
842 1 0.441036 0.671265 0.10821
843 1 0.437049 0.511005 0.206735
844 1 0.433549 0.572296 0.170374
845 1 0.444702 0.693825 0.084109
846 1 0.44837 0.660149 0.103563
847 1 0.444303 0.504222 0.217028
848 1 0.440735 0.561715 0.178159
849 1 0.452248 0.678562 0.0846924
850 1 0.45583 0.631282 0.101281
851 1 0.451822 0.485228 0.214551
852 1 0.448217 0.549347 0.181042
853 1 0.459666 0.662706 0.0854224
854 1 0.463529 0.620341 0.105463
855 1 0.459143 0.462237 0.204932
856 1 0.455616 0.521059 0.178944
857 1 0.467153 0.646604 0.0830353
858 1 0.470775 0.602482 0.106145
859 1 0.466383 0.448896 0.218441
860 1 0.462794 0.509078 0.173177
861 1 0.474866 0.615107 0.0922449
862 1 0.478367 0.566643 0.122893
863 1 0.473535 0.424309 0.23435
864 1 0.470182 0.48727 0.186705
865 1 0.48223 0.576104 0.112757
866 1 0.48585 0.532964 0.151111
867 1 0.480773 0.409414 0.26803
868 1 0.477509 0.464108 0.204138
869 1 0.489849 0.516885 0.167916
870 1 0.49359 0.449865 0.193018
871 1 0.48788 0.391404 0.312386
872 1 0.484702 0.444623 0.243994
873 1 0.497647 0.418276 0.218801
874 1 0.501173 0.399784 0.301158
875 1 0.494973 0.396492 0.39942
876 1 0.492007 0.405687 0.303923
877 1 0.50509 0.406457 0.33839
878 1 0.507532 0.447537 0.42615
879 1 0.50138 0.430749 0.519747
880 1 0.49898 0.409984 0.410774
881 1 0.511028 0.493472 0.460354
882 1 0.513107 0.56458 0.556655
883 1 0.506929 0.515939 0.641371
884 1 0.505208 0.464781 0.530387
885 1 0.515965 0.650186 0.590895
886 1 0.516706 0.75767 0.663084
887 1 0.510807 0.671933 0.745914
888 1 0.510289 0.580704 0.651215
889 1 0.517599 0.878262 0.645702
890 1 0.516149 0.980915 0.58683
891 1 0.511408 0.901906 0.737211
892 1 0.513167 0.778586 0.729458
893 1 0.515725 0.984148 0.460218
894 1 0.513573 0.935422 0.370571
895 1 0.509118 0.970706 0.537453
896 1 0.512028 0.979075 0.626547
897 1 0.513857 0.865545 0.269965
898 1 0.511785 0.791388 0.199579
899 1 0.506716 0.879519 0.334328
900 1 0.509596 0.935461 0.407983
901 1 0.512312 0.701227 0.117113
902 1 0.510072 0.6195 0.0459853
903 1 0.505062 0.746798 0.148903
904 1 0.507853 0.815681 0.220819
905 1 0.510048 0.501759 0.00257613
906 1 0.508018 0.395432 0.00788529
907 1 0.503261 0.565207 0.0247909
908 1 0.506074 0.654878 0.062718