ITEM: TIMESTEP
310000
ITEM: NUMBER OF ATOMS
1216
ITEM: BOX BOUNDS ss ss ss
-0.0318707 371.643
-1.28356 8.90397
2.05196 13.1298
ITEM: ATOMS id type xs ys zs
1 1 0.00342897 0.434902 0.228336
2 1 0.00670523 0.36372 0.228321
3 1 0.00338868 0.15693 0.228336
4 1 9.70026e-05 0.22424 0.228329
5 1 0.00341349 0.85231 0.22834
6 1 0.00670135 0.783168 0.228295
7 1 0.00336883 0.573726 0.228331
8 1 9.85649e-05 0.643189 0.228331
9 1 0.0104317 0.428222 0.227161
10 1 0.0140306 0.360274 0.226477
11 1 0.0105392 0.170808 0.228678
12 1 0.00695241 0.210788 0.228588
13 1 0.0176542 0.432117 0.225924
14 1 0.0212549 0.367898 0.226176
15 1 0.0177875 0.175844 0.228399
16 1 0.0141026 0.214506 0.228125
17 1 0.0248729 0.430287 0.225341
18 1 0.0285426 0.369142 0.22841
19 1 0.0248295 0.176081 0.238761
20 1 0.0213235 0.223807 0.228277
21 1 0.0322528 0.432931 0.226178
22 1 0.0359637 0.364092 0.229953
23 1 0.0321372 0.177078 0.249315
24 1 0.028506 0.222885 0.236501
25 1 0.0395861 0.434695 0.22826
26 1 0.0431347 0.368201 0.24259
27 1 0.0395911 0.178372 0.258074
28 1 0.035974 0.218411 0.248187
29 1 0.0469398 0.432649 0.235471
30 1 0.050505 0.371214 0.249873
31 1 0.0470957 0.183324 0.27213
32 1 0.0433513 0.215994 0.263247
33 1 0.0541514 0.430976 0.240229
34 1 0.0577957 0.363561 0.241054
35 1 0.0541615 0.182456 0.253
36 1 0.0506 0.230437 0.262677
37 1 0.0614754 0.432959 0.229968
38 1 0.0649813 0.362467 0.240863
39 1 0.0612787 0.173337 0.25352
40 1 0.0577195 0.223008 0.247466
41 1 0.068656 0.421315 0.233839
42 1 0.0723322 0.350634 0.241408
43 1 0.0685625 0.172703 0.245421
44 1 0.0648708 0.218408 0.254823
45 1 0.0760964 0.415815 0.24006
46 1 0.0796783 0.349428 0.245769
47 1 0.0759168 0.158129 0.246706
48 1 0.0722817 0.202359 0.245036
49 1 0.0835076 0.418191 0.242681
50 1 0.087205 0.352912 0.24498
51 1 0.0836249 0.163076 0.26292
52 1 0.0797859 0.202539 0.253333
53 1 0.0908115 0.421776 0.248493
54 1 0.0944428 0.354325 0.251878
55 1 0.090771 0.163212 0.256831
56 1 0.0871868 0.202514 0.258467
57 1 0.0982029 0.424408 0.250225
58 1 0.101765 0.351916 0.248931
59 1 0.0982495 0.160921 0.258803
60 1 0.0945307 0.205336 0.261367
61 1 0.10547 0.420489 0.244745
62 1 0.109227 0.36128 0.256119
63 1 0.105641 0.170299 0.263977
64 1 0.101971 0.204227 0.257211
65 1 0.112996 0.424547 0.248072
66 1 0.116636 0.360102 0.254294
67 1 0.113006 0.171774 0.274507
68 1 0.109235 0.215126 0.265941
69 1 0.120143 0.426186 0.250155
70 1 0.123889 0.357023 0.257104
71 1 0.120332 0.172569 0.279913
72 1 0.116812 0.210732 0.272432
73 1 0.12762 0.424075 0.255865
74 1 0.131324 0.355227 0.263181
75 1 0.127594 0.162666 0.286027
76 1 0.124059 0.211309 0.267749
77 1 0.135122 0.42488 0.247909
78 1 0.138835 0.361195 0.258735
79 1 0.134919 0.171247 0.295954
80 1 0.131281 0.207781 0.286345
81 1 0.142334 0.426034 0.23803
82 1 0.145935 0.360662 0.259698
83 1 0.142055 0.178888 0.298833
84 1 0.13846 0.22226 0.286785
85 1 0.149585 0.429784 0.253286
86 1 0.153379 0.369912 0.273341
87 1 0.149506 0.183491 0.307333
88 1 0.145749 0.219175 0.2925
89 1 0.156945 0.429008 0.248143
90 1 0.160603 0.364022 0.258442
91 1 0.156697 0.184429 0.313638
92 1 0.153044 0.226944 0.308084
93 1 0.164248 0.423746 0.242031
94 1 0.167917 0.351833 0.261237
95 1 0.163801 0.175677 0.315284
96 1 0.160319 0.221376 0.299416
97 1 0.171609 0.415185 0.235624
98 1 0.175289 0.349864 0.255226
99 1 0.17139 0.172971 0.303874
100 1 0.16755 0.211661 0.299411
101 1 0.178883 0.418193 0.239436
102 1 0.182482 0.351669 0.255923
103 1 0.178772 0.171762 0.307425
104 1 0.175096 0.211699 0.291376
105 1 0.186113 0.416623 0.2403
106 1 0.189873 0.355579 0.245931
107 1 0.186046 0.173207 0.306149
108 1 0.182344 0.21206 0.298877
109 1 0.193578 0.417458 0.228511
110 1 0.197206 0.354654 0.251702
111 1 0.193404 0.176538 0.29345
112 1 0.189701 0.213432 0.284998
113 1 0.201054 0.412497 0.23833
114 1 0.204735 0.346878 0.255523
115 1 0.200597 0.167167 0.290071
116 1 0.197003 0.215681 0.286648
117 1 0.208456 0.405753 0.232763
118 1 0.211964 0.34476 0.253924
119 1 0.208283 0.160171 0.298413
120 1 0.204525 0.202122 0.286792
121 1 0.215725 0.408764 0.232756
122 1 0.219375 0.348407 0.260529
123 1 0.215671 0.16445 0.30104
124 1 0.211991 0.20641 0.290016
125 1 0.222974 0.410519 0.238239
126 1 0.226534 0.345679 0.261907
127 1 0.22295 0.169057 0.326829
128 1 0.219303 0.20646 0.302133
129 1 0.230228 0.410664 0.242342
130 1 0.233976 0.345889 0.262974
131 1 0.23025 0.167952 0.331316
132 1 0.226604 0.210743 0.317665
133 1 0.237699 0.415918 0.253294
134 1 0.241299 0.352227 0.279476
135 1 0.237497 0.171383 0.322441
136 1 0.233985 0.21203 0.313501
137 1 0.245095 0.417737 0.259232
138 1 0.24868 0.350279 0.278402
139 1 0.244937 0.166945 0.335579
140 1 0.241148 0.211501 0.318168
141 1 0.252487 0.409307 0.249833
142 1 0.256027 0.348862 0.273127
143 1 0.252394 0.183716 0.34955
144 1 0.248538 0.215487 0.331481
145 1 0.259727 0.41167 0.245967
146 1 0.263405 0.35248 0.273821
147 1 0.259604 0.186603 0.364665
148 1 0.256137 0.221382 0.339315
149 1 0.267139 0.411265 0.247803
150 1 0.270793 0.353161 0.273494
151 1 0.267141 0.193492 0.365821
152 1 0.263304 0.229301 0.342452
153 1 0.274309 0.415102 0.247355
154 1 0.27802 0.366457 0.281448
155 1 0.274749 0.195307 0.359091
156 1 0.270925 0.223809 0.340575
157 1 0.281729 0.432169 0.262491
158 1 0.285389 0.36996 0.293976
159 1 0.281812 0.200842 0.368352
160 1 0.278328 0.238011 0.348404
161 1 0.289007 0.424887 0.254389
162 1 0.292699 0.358985 0.287796
163 1 0.289085 0.200567 0.370492
164 1 0.285556 0.240491 0.356
165 1 0.2965 0.416018 0.250675
166 1 0.300141 0.361855 0.291357
167 1 0.29635 0.197905 0.375589
168 1 0.292714 0.234659 0.358976
169 1 0.303741 0.419216 0.261578
170 1 0.307468 0.362068 0.294397
171 1 0.303604 0.199012 0.377521
172 1 0.299913 0.23219 0.352177
173 1 0.310998 0.427737 0.267753
174 1 0.314645 0.367453 0.305962
175 1 0.310889 0.196505 0.382326
176 1 0.307237 0.231652 0.359384
177 1 0.318383 0.432578 0.278498
178 1 0.322031 0.376034 0.312326
179 1 0.318537 0.205982 0.386361
180 1 0.314707 0.236308 0.373817
181 1 0.325609 0.439727 0.277347
182 1 0.329408 0.380721 0.306349
183 1 0.325804 0.217533 0.390466
184 1 0.322051 0.243309 0.365971
185 1 0.333046 0.448006 0.272765
186 1 0.336702 0.391096 0.305478
187 1 0.333049 0.221405 0.392994
188 1 0.329452 0.260854 0.377676
189 1 0.340455 0.448026 0.269865
190 1 0.343968 0.386488 0.301991
191 1 0.340528 0.227358 0.391665
192 1 0.336738 0.257144 0.371943
193 1 0.347583 0.444227 0.273392
194 1 0.351178 0.389172 0.30012
195 1 0.347832 0.235868 0.39375
196 1 0.344117 0.266008 0.376045
197 1 0.354922 0.444541 0.261723
198 1 0.358599 0.385526 0.28826
199 1 0.355057 0.221547 0.380713
200 1 0.351478 0.26644 0.366949
201 1 0.362113 0.444719 0.255699
202 1 0.365861 0.392809 0.28202
203 1 0.362262 0.224212 0.370887
204 1 0.358704 0.257857 0.349792
205 1 0.369436 0.450516 0.25138
206 1 0.373161 0.395711 0.284904
207 1 0.369461 0.227017 0.361608
208 1 0.365766 0.263635 0.34711
209 1 0.376845 0.448841 0.256166
210 1 0.380376 0.391619 0.285763
211 1 0.376668 0.224847 0.358149
212 1 0.372932 0.264837 0.344594
213 1 0.384056 0.451084 0.251533
214 1 0.387914 0.39366 0.284154
215 1 0.384054 0.231117 0.361053
216 1 0.380347 0.263156 0.348143
217 1 0.39146 0.457172 0.257844
218 1 0.395039 0.398428 0.292516
219 1 0.391506 0.224114 0.370874
220 1 0.387785 0.265849 0.351539
221 1 0.398722 0.461413 0.26679
222 1 0.402405 0.397868 0.304825
223 1 0.398728 0.240461 0.390529
224 1 0.395165 0.271818 0.364256
225 1 0.405904 0.457753 0.272544
226 1 0.409721 0.396068 0.309404
227 1 0.406035 0.24236 0.403557
228 1 0.402368 0.278495 0.379469
229 1 0.413522 0.453527 0.270125
230 1 0.416955 0.388313 0.305964
231 1 0.413103 0.235191 0.405109
232 1 0.409606 0.281825 0.389124
233 1 0.42048 0.439338 0.267464
234 1 0.424162 0.379673 0.304196
235 1 0.420403 0.226637 0.411841
236 1 0.416679 0.26666 0.38134
237 1 0.427979 0.430864 0.270901
238 1 0.431489 0.377009 0.316788
239 1 0.427613 0.223292 0.41245
240 1 0.423994 0.262254 0.38615
241 1 0.435296 0.431189 0.288983
242 1 0.43887 0.373981 0.323548
243 1 0.435193 0.212905 0.411696
244 1 0.431483 0.254497 0.390042
245 1 0.442617 0.429141 0.294434
246 1 0.446177 0.368491 0.340051
247 1 0.442438 0.218976 0.430388
248 1 0.438751 0.250892 0.40036
249 1 0.449996 0.417741 0.304511
250 1 0.453526 0.359326 0.340711
251 1 0.449755 0.202585 0.430528
252 1 0.44618 0.23989 0.409427
253 1 0.457157 0.405793 0.307607
254 1 0.460751 0.342538 0.353514
255 1 0.456796 0.189882 0.443801
256 1 0.453274 0.229103 0.411768
257 1 0.464568 0.393937 0.320479
258 1 0.468003 0.330912 0.359472
259 1 0.463939 0.17987 0.454481
260 1 0.460364 0.221111 0.432554
261 1 0.47166 0.38371 0.322478
262 1 0.475095 0.317455 0.374931
263 1 0.471053 0.166051 0.470935
264 1 0.467597 0.206084 0.436791
265 1 0.479037 0.36832 0.347345
266 1 0.482291 0.319851 0.400172
267 1 0.478223 0.162653 0.486482
268 1 0.474616 0.201914 0.45804
269 1 0.486073 0.367311 0.393776
270 1 0.489141 0.325983 0.473377
271 1 0.485248 0.184067 0.519924
272 1 0.48178 0.202381 0.470083
273 1 0.492874 0.363902 0.491278
274 1 0.49539 0.337137 0.587568
275 1 0.490968 0.22714 0.650436
276 1 0.488403 0.231376 0.561556
277 1 0.499029 0.375796 0.600191
278 1 0.500992 0.39316 0.71006
279 1 0.496235 0.297147 0.792563
280 1 0.494094 0.272961 0.694619
281 1 0.504369 0.458542 0.725082
282 1 0.505567 0.5371 0.830062
283 1 0.501128 0.421888 0.918135
284 1 0.499409 0.358719 0.826847
285 1 0.508369 0.63736 0.822919
286 1 0.507778 0.77478 0.875708
287 1 0.503582 0.650102 0.993123
288 1 0.503631 0.52292 0.945181
289 1 0.509034 0.888502 0.79714
290 1 0.506193 0.952723 0.727006
291 1 0.502469 0.871709 0.889517
292 1 0.504358 0.775367 0.949652
293 1 0.506509 0.970996 0.59228
294 1 0.503581 0.939789 0.503457
295 1 0.499955 0.92819 0.68233
296 1 0.502408 0.945054 0.783666
297 1 0.504123 0.916109 0.373744
298 1 0.501284 0.874346 0.290965
299 1 0.497468 0.903543 0.459541
300 1 0.49972 0.918678 0.558771
301 1 0.501747 0.795414 0.176684
302 1 0.49896 0.735621 0.0998915
303 1 0.495187 0.830252 0.240036
304 1 0.497395 0.883476 0.332514
305 1 0.499294 0.617006 0.0242183
306 1 0.496309 0.519224 0.00152559
307 1 0.492825 0.685724 0.0510804
308 1 0.495185 0.761446 0.131167
309 1 0.497051 0.373483 0.0102901
310 1 0.493892 0.290202 0.0604049
311 1 0.490274 0.456211 -0.00111649
312 1 0.492503 0.563043 -0.00654113
313 1 0.494434 0.19879 0.17221
314 1 0.491447 0.136088 0.246919
315 1 0.487679 0.247927 0.113043
316 1 0.489885 0.32751 0.0443329
317 1 0.491975 0.0720428 0.367765
318 1 0.489114 0.026188 0.448142
319 1 0.485383 0.0849859 0.28406
320 1 0.487641 0.157054 0.207601
321 1 0.489553 0.028411 0.582402
322 1 0.486407 0.0541243 0.667407
323 1 0.482725 0.000810123 0.491247
324 1 0.48526 0.0236542 0.398966
325 1 0.486962 0.149627 0.764346
326 1 0.486073 0.292779 0.734157
327 1 0.481427 0.182505 0.659476
328 1 0.482243 0.0446888 0.616523
329 1 0.488737 0.399577 0.738898
330 1 0.489668 0.48371 0.630663
331 1 0.48412 0.409498 0.568137
332 1 0.483042 0.308908 0.650781
333 1 0.493317 0.532526 0.608753
334 1 0.495116 0.569281 0.491058
335 1 0.489099 0.56408 0.437302
336 1 0.486969 0.502512 0.534922
337 1 0.499111 0.585662 0.474914
338 1 0.501532 0.578952 0.369008
339 1 0.495861 0.616779 0.284611
340 1 0.492619 0.601211 0.387128
341 1 0.505652 0.572953 0.366414
342 1 0.50913 0.526176 0.282874
343 1 0.503569 0.532942 0.182704
344 1 0.49985 0.591649 0.251995
345 1 0.513198 0.534598 0.291598
346 1 0.516406 0.475573 0.227725
347 1 0.511606 0.390542 0.137704
348 1 0.50755 0.475546 0.170362
349 1 0.520518 0.503206 0.265329
350 1 0.523822 0.445598 0.216567
351 1 0.519366 0.338567 0.0990105
352 1 0.515714 0.37902 0.133629
353 1 0.527724 0.483029 0.249619
354 1 0.531223 0.424126 0.209377
355 1 0.526856 0.301957 0.0928034
356 1 0.52327 0.34628 0.117163
357 1 0.535022 0.47333 0.237891
358 1 0.538572 0.416635 0.193253
359 1 0.534417 0.267711 0.095254
360 1 0.530803 0.314109 0.11725
361 1 0.54234 0.468495 0.2261
362 1 0.545967 0.419455 0.177788
363 1 0.541954 0.263142 0.0922585
364 1 0.538276 0.297725 0.117624
365 1 0.549594 0.465862 0.21078
366 1 0.553229 0.40739 0.178525
367 1 0.549425 0.256691 0.0884342
368 1 0.545679 0.297981 0.102529
369 1 0.557193 0.459263 0.220419
370 1 0.560786 0.402491 0.181221
371 1 0.556848 0.253691 0.0783543
372 1 0.553177 0.289132 0.107902
373 1 0.564504 0.45379 0.213443
374 1 0.568022 0.389976 0.177117
375 1 0.564254 0.239327 0.0821378
376 1 0.560506 0.284628 0.101783
377 1 0.571774 0.44705 0.206718
378 1 0.575359 0.388548 0.179746
379 1 0.571747 0.22754 0.0873438
380 1 0.568075 0.261634 0.106815
381 1 0.579227 0.449338 0.207773
382 1 0.582811 0.395004 0.168238
383 1 0.579146 0.226802 0.0905414
384 1 0.575443 0.260754 0.111434
385 1 0.586493 0.451675 0.209156
386 1 0.590138 0.392677 0.170572
387 1 0.58648 0.228506 0.0920378
388 1 0.582892 0.269737 0.102124
389 1 0.593901 0.445022 0.201442
390 1 0.597565 0.382272 0.179366
391 1 0.593737 0.214499 0.0989336
392 1 0.590156 0.261212 0.113218
393 1 0.601302 0.43483 0.211634
394 1 0.604916 0.368612 0.187475
395 1 0.601181 0.21338 0.103002
396 1 0.597493 0.250847 0.121617
397 1 0.608581 0.433756 0.211803
398 1 0.612452 0.371189 0.186081
399 1 0.608502 0.215238 0.0958443
400 1 0.604871 0.248099 0.121425
401 1 0.616072 0.429608 0.211469
402 1 0.619648 0.376001 0.17411
403 1 0.615955 0.211837 0.0911811
404 1 0.61235 0.245047 0.116731
405 1 0.623514 0.433788 0.204513
406 1 0.627083 0.36998 0.176658
407 1 0.623281 0.209566 0.0821799
408 1 0.619531 0.247526 0.105184
409 1 0.630781 0.424761 0.210356
410 1 0.63427 0.361155 0.176921
411 1 0.630787 0.19902 0.0900661
412 1 0.627092 0.240201 0.110826
413 1 0.638168 0.426081 0.207462
414 1 0.641774 0.369934 0.183366
415 1 0.638237 0.199723 0.096962
416 1 0.634588 0.236427 0.109851
417 1 0.645381 0.433555 0.206304
418 1 0.648885 0.371134 0.179101
419 1 0.645368 0.19364 0.108771
420 1 0.641753 0.241128 0.117394
421 1 0.652615 0.430983 0.205576
422 1 0.656217 0.367526 0.175183
423 1 0.652513 0.193127 0.116887
424 1 0.648832 0.231787 0.134753
425 1 0.660043 0.427903 0.197796
426 1 0.663592 0.362218 0.171289
427 1 0.65989 0.191068 0.101896
428 1 0.656172 0.23409 0.124561
429 1 0.667243 0.42325 0.193601
430 1 0.670991 0.360731 0.172766
431 1 0.667234 0.193682 0.0931931
432 1 0.66354 0.23048 0.112962
433 1 0.67459 0.431156 0.196143
434 1 0.678325 0.365314 0.173957
435 1 0.674531 0.188115 0.113612
436 1 0.670905 0.231079 0.115155
437 1 0.682009 0.429519 0.198306
438 1 0.685711 0.362738 0.181536
439 1 0.681975 0.193761 0.115673
440 1 0.678157 0.227352 0.12809
441 1 0.689467 0.424348 0.207857
442 1 0.692954 0.362156 0.191381
443 1 0.689312 0.183249 0.121731
444 1 0.685561 0.226702 0.136574
445 1 0.696672 0.422891 0.217209
446 1 0.700465 0.359057 0.187471
447 1 0.696729 0.191043 0.124574
448 1 0.692958 0.227478 0.141174
449 1 0.704201 0.42524 0.191896
450 1 0.707753 0.353548 0.173278
451 1 0.704048 0.178905 0.133528
452 1 0.700321 0.219606 0.141665
453 1 0.711494 0.42249 0.195354
454 1 0.715011 0.356232 0.1804
455 1 0.711508 0.172088 0.128538
456 1 0.707844 0.21129 0.145715
457 1 0.718856 0.422055 0.201311
458 1 0.722326 0.357279 0.182847
459 1 0.71884 0.175533 0.126954
460 1 0.715186 0.215209 0.137599
461 1 0.726216 0.421535 0.198728
462 1 0.729948 0.355832 0.17608
463 1 0.725995 0.17315 0.129463
464 1 0.722471 0.212152 0.141091
465 1 0.733536 0.416685 0.204384
466 1 0.737198 0.35231 0.19366
467 1 0.733408 0.173156 0.13011
468 1 0.72967 0.210345 0.131829
469 1 0.740774 0.420606 0.207152
470 1 0.744447 0.357562 0.188252
471 1 0.740785 0.173205 0.148936
472 1 0.736989 0.212862 0.152126
473 1 0.747998 0.427179 0.202635
474 1 0.751526 0.354377 0.194674
475 1 0.747969 0.168221 0.151274
476 1 0.744359 0.2139 0.157531
477 1 0.755421 0.416812 0.21041
478 1 0.758895 0.346332 0.197029
479 1 0.75518 0.167412 0.149599
480 1 0.751601 0.208446 0.162389
481 1 0.762664 0.403062 0.216534
482 1 0.76643 0.342376 0.189482
483 1 0.762493 0.1583 0.150437
484 1 0.758805 0.204585 0.167039
485 1 0.770123 0.407689 0.212877
486 1 0.773723 0.346195 0.192193
487 1 0.769865 0.166295 0.137487
488 1 0.766143 0.201415 0.151159
489 1 0.777204 0.41508 0.201147
490 1 0.780983 0.353635 0.183106
491 1 0.777326 0.165497 0.146498
492 1 0.773658 0.2047 0.154518
493 1 0.784652 0.414983 0.209603
494 1 0.788313 0.35427 0.189791
495 1 0.784725 0.172474 0.148081
496 1 0.780928 0.206799 0.152414
497 1 0.791866 0.414841 0.218341
498 1 0.795709 0.349654 0.210337
499 1 0.792035 0.177976 0.143231
500 1 0.78837 0.217276 0.153963
501 1 0.799321 0.415067 0.234439
502 1 0.803058 0.35089 0.208728
503 1 0.79947 0.173729 0.144096
504 1 0.795849 0.214654 0.158826
505 1 0.806696 0.413247 0.229764
506 1 0.810418 0.350081 0.213663
507 1 0.806794 0.179195 0.14608
508 1 0.803064 0.215859 0.156328
509 1 0.81393 0.41885 0.228777
510 1 0.817667 0.353911 0.218107
511 1 0.81411 0.175252 0.162807
512 1 0.810578 0.214329 0.165619
513 1 0.821244 0.424973 0.233071
514 1 0.824896 0.359429 0.213459
515 1 0.821231 0.176675 0.172127
516 1 0.817601 0.215381 0.18178
517 1 0.828362 0.427114 0.230619
518 1 0.832003 0.359105 0.213046
519 1 0.828375 0.167987 0.1683
520 1 0.824829 0.215035 0.180327
521 1 0.835751 0.423036 0.221506
522 1 0.839353 0.354426 0.203315
523 1 0.835757 0.174627 0.163356
524 1 0.832121 0.213958 0.180828
525 1 0.843063 0.424039 0.215993
526 1 0.846739 0.357661 0.210087
527 1 0.843372 0.171086 0.172748
528 1 0.839537 0.213265 0.171958
529 1 0.850453 0.424122 0.21486
530 1 0.854189 0.359115 0.204878
531 1 0.850518 0.179893 0.175938
532 1 0.846836 0.219827 0.189015
533 1 0.857862 0.430107 0.21223
534 1 0.861429 0.361411 0.197604
535 1 0.857826 0.164829 0.188013
536 1 0.854241 0.214414 0.185396
537 1 0.865282 0.432322 0.210812
538 1 0.868779 0.36168 0.203351
539 1 0.865066 0.179467 0.18459
540 1 0.861426 0.212919 0.189995
541 1 0.872498 0.429944 0.211595
542 1 0.87613 0.365476 0.2003
543 1 0.872578 0.175391 0.175905
544 1 0.868767 0.218083 0.184169
545 1 0.879705 0.430974 0.204297
546 1 0.883373 0.36717 0.199533
547 1 0.879764 0.173711 0.18497
548 1 0.876245 0.219116 0.184014
549 1 0.887045 0.440089 0.203857
550 1 0.890764 0.370893 0.200835
551 1 0.887039 0.189295 0.189782
552 1 0.883396 0.221016 0.190242
553 1 0.894414 0.438209 0.212912
554 1 0.898127 0.365874 0.200673
555 1 0.894396 0.183851 0.175233
556 1 0.890696 0.226743 0.190522
557 1 0.901554 0.437509 0.208735
558 1 0.90527 0.371375 0.20201
559 1 0.901822 0.181777 0.187855
560 1 0.898094 0.222684 0.18105
561 1 0.908738 0.441839 0.201572
562 1 0.912617 0.379184 0.192407
563 1 0.909129 0.180757 0.193356
564 1 0.905482 0.227463 0.199683
565 1 0.916221 0.44476 0.20253
566 1 0.919843 0.376007 0.198229
567 1 0.91629 0.184394 0.185477
568 1 0.912802 0.228335 0.187834
569 1 0.923508 0.441195 0.213695
570 1 0.92726 0.376529 0.20796
571 1 0.923619 0.191534 0.18911
572 1 0.919861 0.229219 0.18626
573 1 0.93092 0.438417 0.207909
574 1 0.934549 0.376469 0.198097
575 1 0.931024 0.185122 0.198322
576 1 0.927362 0.230996 0.201945
577 1 0.938196 0.445505 0.209531
578 1 0.941873 0.371112 0.204395
579 1 0.938292 0.191155 0.187932
580 1 0.934589 0.228581 0.196543
581 1 0.945591 0.444141 0.215497
582 1 0.949179 0.369401 0.214698
583 1 0.94552 0.180856 0.19202
584 1 0.941987 0.223396 0.190866
585 1 0.952775 0.442174 0.223781
586 1 0.956379 0.373983 0.208269
587 1 0.952979 0.181137 0.187355
588 1 0.949255 0.223118 0.192936
589 1 0.959949 0.442169 0.221316
590 1 0.963664 0.368298 0.222004
591 1 0.959999 0.187873 0.20377
592 1 0.956445 0.230659 0.194185
593 1 0.967384 0.43483 0.221571
594 1 0.971055 0.371175 0.227641
595 1 0.967552 0.181841 0.221579
596 1 0.9638 0.220346 0.220013
597 1 0.974713 0.435354 0.226304
598 1 0.978542 0.365344 0.224052
599 1 0.974679 0.174247 0.21991
600 1 0.97111 0.22161 0.225567
601 1 0.982152 0.43361 0.222465
602 1 0.986063 0.369795 0.225286
603 1 0.982505 0.178699 0.221318
604 1 0.978714 0.211623 0.222739
605 1 0.989653 0.436653 0.226769
606 1 0.993222 0.368266 0.227963
607 1 0.989725 0.184106 0.22722
608 1 0.986114 0.224394 0.225656
609 1 0.0103664 0.823985 0.225311
610 1 0.0139785 0.783771 0.222145
611 1 0.0104401 0.571466 0.226359
612 1 0.00686975 0.639796 0.228025
613 1 0.0175297 0.831814 0.219888
614 1 0.0212312 0.792964 0.212747
615 1 0.017553 0.575997 0.226887
616 1 0.0140287 0.638374 0.223534
617 1 0.0248503 0.834872 0.210688
618 1 0.0286413 0.789628 0.213183
619 1 0.0249163 0.57737 0.221835
620 1 0.0212625 0.642112 0.219792
621 1 0.0323964 0.828437 0.199812
622 1 0.0360285 0.788826 0.207245
623 1 0.0324172 0.581245 0.230002
624 1 0.0286627 0.643407 0.226865
625 1 0.0396179 0.830687 0.188073
626 1 0.04323 0.785938 0.19051
627 1 0.0396949 0.577438 0.220074
628 1 0.0360196 0.645264 0.227246
629 1 0.0469076 0.831662 0.192771
630 1 0.050546 0.788316 0.19641
631 1 0.046815 0.574672 0.212462
632 1 0.04335 0.641023 0.202582
633 1 0.0542243 0.833418 0.196901
634 1 0.057859 0.787596 0.199958
635 1 0.0540795 0.575523 0.2188
636 1 0.050478 0.641082 0.203202
637 1 0.0616313 0.826782 0.192707
638 1 0.0652953 0.783014 0.201981
639 1 0.0615912 0.571722 0.211177
640 1 0.0577761 0.641424 0.21225
641 1 0.0688764 0.821198 0.196732
642 1 0.0724298 0.777785 0.203912
643 1 0.0687423 0.567171 0.221108
644 1 0.0651546 0.637873 0.21483
645 1 0.0760067 0.815235 0.209004
646 1 0.0795516 0.773755 0.222456
647 1 0.0760342 0.558942 0.235335
648 1 0.0725185 0.630146 0.22458
649 1 0.0832647 0.820324 0.217307
650 1 0.0869363 0.778617 0.215624
651 1 0.0833859 0.559795 0.239057
652 1 0.0797924 0.628983 0.234603
653 1 0.0907729 0.815415 0.20677
654 1 0.094337 0.769848 0.206204
655 1 0.0906789 0.562697 0.232997
656 1 0.0871116 0.62856 0.229009
657 1 0.0979505 0.815009 0.200355
658 1 0.101704 0.780879 0.200318
659 1 0.0981167 0.566642 0.230616
660 1 0.0944069 0.630013 0.223569
661 1 0.10532 0.823497 0.197178
662 1 0.10908 0.781605 0.202136
663 1 0.105501 0.566679 0.23681
664 1 0.101796 0.637006 0.225021
665 1 0.112861 0.826535 0.204013
666 1 0.116452 0.778644 0.207209
667 1 0.11287 0.568627 0.242413
668 1 0.109127 0.64017 0.227057
669 1 0.1202 0.824615 0.198
670 1 0.123929 0.775205 0.195104
671 1 0.120107 0.565241 0.239052
672 1 0.116428 0.635125 0.233366
673 1 0.127565 0.810346 0.177492
674 1 0.131328 0.773805 0.192108
675 1 0.127684 0.565481 0.237356
676 1 0.123851 0.633264 0.228444
677 1 0.135026 0.815166 0.176292
678 1 0.138667 0.778983 0.191659
679 1 0.135068 0.568789 0.231076
680 1 0.131337 0.634817 0.229681
681 1 0.142456 0.825755 0.179073
682 1 0.146101 0.785833 0.177381
683 1 0.1424 0.564742 0.218209
684 1 0.138843 0.633766 0.213544
685 1 0.149799 0.823404 0.1795
686 1 0.153364 0.778623 0.187224
687 1 0.149742 0.571564 0.22469
688 1 0.14601 0.63456 0.201368
689 1 0.15701 0.815441 0.172791
690 1 0.160594 0.774453 0.179369
691 1 0.157034 0.569168 0.22229
692 1 0.153403 0.634241 0.213989
693 1 0.164349 0.814501 0.165245
694 1 0.168041 0.768805 0.166403
695 1 0.164413 0.565328 0.21161
696 1 0.160625 0.629513 0.20866
697 1 0.171799 0.800644 0.148096
698 1 0.175368 0.760456 0.157511
699 1 0.171647 0.556036 0.198409
700 1 0.167996 0.629556 0.197658
701 1 0.179133 0.801104 0.141796
702 1 0.182853 0.764103 0.151651
703 1 0.179006 0.557607 0.205741
704 1 0.175414 0.620346 0.187993
705 1 0.18645 0.804661 0.14112
706 1 0.190089 0.758478 0.149216
707 1 0.18623 0.554167 0.202206
708 1 0.18267 0.621246 0.193038
709 1 0.193695 0.806454 0.131192
710 1 0.197443 0.760765 0.147384
711 1 0.193566 0.554402 0.191633
712 1 0.189918 0.617166 0.178573
713 1 0.201043 0.800144 0.135987
714 1 0.20462 0.75849 0.144186
715 1 0.201027 0.551184 0.196431
716 1 0.197249 0.618561 0.18595
717 1 0.208373 0.792772 0.141941
718 1 0.212062 0.752853 0.146119
719 1 0.208249 0.546459 0.19745
720 1 0.204703 0.617041 0.178428
721 1 0.215776 0.805715 0.140102
722 1 0.219471 0.759164 0.152259
723 1 0.215867 0.546113 0.191353
724 1 0.212069 0.609539 0.171842
725 1 0.223006 0.795734 0.136274
726 1 0.226579 0.75093 0.133702
727 1 0.223035 0.548026 0.197242
728 1 0.219356 0.610681 0.176506
729 1 0.230401 0.783273 0.123065
730 1 0.234069 0.744445 0.130454
731 1 0.230184 0.544869 0.197378
732 1 0.22678 0.609226 0.16927
733 1 0.237644 0.785038 0.114243
734 1 0.24135 0.743678 0.129791
735 1 0.237668 0.550025 0.213325
736 1 0.234114 0.607598 0.179344
737 1 0.244957 0.782874 0.10937
738 1 0.248658 0.74176 0.12086
739 1 0.245001 0.547999 0.208634
740 1 0.241348 0.614498 0.191424
741 1 0.252207 0.772238 0.107568
742 1 0.255801 0.73883 0.132432
743 1 0.252277 0.546167 0.208466
744 1 0.248591 0.608343 0.176927
745 1 0.259572 0.774962 0.107171
746 1 0.263273 0.742363 0.120605
747 1 0.259603 0.547373 0.200712
748 1 0.256011 0.609866 0.181022
749 1 0.267001 0.777824 0.110983
750 1 0.270564 0.742665 0.129654
751 1 0.266972 0.543999 0.195059
752 1 0.263256 0.604277 0.175307
753 1 0.274193 0.787689 0.115272
754 1 0.277987 0.75278 0.117597
755 1 0.274226 0.549383 0.193894
756 1 0.270661 0.60168 0.172228
757 1 0.281713 0.798939 0.10208
758 1 0.285385 0.756293 0.111406
759 1 0.28177 0.560896 0.200615
760 1 0.277928 0.617626 0.172617
761 1 0.28906 0.788242 0.0947468
762 1 0.292567 0.744385 0.10957
763 1 0.289198 0.551964 0.192632
764 1 0.285444 0.617107 0.164991
765 1 0.296087 0.781414 0.0920604
766 1 0.299796 0.745373 0.109625
767 1 0.296492 0.544018 0.189283
768 1 0.292879 0.609765 0.162019
769 1 0.303532 0.770062 0.085382
770 1 0.30716 0.729542 0.101697
771 1 0.30364 0.545882 0.198227
772 1 0.300185 0.60942 0.165217
773 1 0.310772 0.768977 0.0787179
774 1 0.314433 0.735335 0.094967
775 1 0.310785 0.550352 0.196897
776 1 0.307148 0.601339 0.165258
777 1 0.318088 0.773804 0.0752137
778 1 0.321721 0.741289 0.0990803
779 1 0.318169 0.548969 0.202375
780 1 0.314393 0.611512 0.165802
781 1 0.325248 0.782505 0.074068
782 1 0.328974 0.749278 0.0885017
783 1 0.325509 0.56074 0.203701
784 1 0.321717 0.61527 0.169486
785 1 0.332672 0.777908 0.0618856
786 1 0.336364 0.743023 0.0805825
787 1 0.333025 0.568884 0.198078
788 1 0.329135 0.623624 0.165629
789 1 0.340107 0.774188 0.0568563
790 1 0.343773 0.738505 0.079586
791 1 0.340303 0.563315 0.188739
792 1 0.33675 0.623788 0.16049
793 1 0.347296 0.77326 0.0555911
794 1 0.35096 0.745466 0.081385
795 1 0.347606 0.566275 0.201638
796 1 0.343832 0.611139 0.152738
797 1 0.35464 0.786164 0.0558391
798 1 0.358321 0.750895 0.0783898
799 1 0.354914 0.56567 0.192155
800 1 0.351048 0.629017 0.164976
801 1 0.361974 0.786307 0.058007
802 1 0.365674 0.747536 0.0733817
803 1 0.362118 0.560678 0.181779
804 1 0.358363 0.624845 0.150857
805 1 0.369348 0.779002 0.0478544
806 1 0.373092 0.746997 0.0790038
807 1 0.369389 0.573708 0.183659
808 1 0.365639 0.623691 0.146724
809 1 0.376724 0.790773 0.0562072
810 1 0.380548 0.762127 0.0777931
811 1 0.376836 0.572726 0.189516
812 1 0.37314 0.631209 0.155268
813 1 0.384439 0.794067 0.0618806
814 1 0.388089 0.75718 0.0850024
815 1 0.384227 0.575487 0.183488
816 1 0.380609 0.633902 0.148476
817 1 0.391617 0.791601 0.0601351
818 1 0.395268 0.763526 0.0796898
819 1 0.391581 0.575837 0.192298
820 1 0.3879 0.6322 0.155889
821 1 0.398938 0.799322 0.06019
822 1 0.402714 0.75643 0.0887187
823 1 0.398818 0.580746 0.200878
824 1 0.395345 0.641993 0.16277
825 1 0.406407 0.796352 0.0737121
826 1 0.410062 0.760614 0.0896569
827 1 0.406122 0.579216 0.195981
828 1 0.402539 0.633132 0.160074
829 1 0.413697 0.7936 0.0735844
830 1 0.417381 0.75669 0.0948503
831 1 0.413303 0.573632 0.198416
832 1 0.409582 0.632142 0.163967
833 1 0.421161 0.789543 0.0809197
834 1 0.424741 0.746856 0.108326
835 1 0.42083 0.567495 0.199295
836 1 0.417035 0.628964 0.166633
837 1 0.428373 0.775917 0.086599
838 1 0.431918 0.733596 0.10598
839 1 0.428021 0.5535 0.199234
840 1 0.424498 0.619068 0.166124
841 1 0.435606 0.762526 0.0764148
842 1 0.439407 0.719572 0.100652
843 1 0.435266 0.54895 0.212302
844 1 0.431776 0.608234 0.176347
845 1 0.443063 0.744984 0.0723939
846 1 0.446718 0.710614 0.0980897
847 1 0.442756 0.540888 0.212218
848 1 0.438999 0.600062 0.178558
849 1 0.450518 0.734829 0.0731846
850 1 0.454182 0.692631 0.0975812
851 1 0.450079 0.533816 0.220077
852 1 0.446508 0.589335 0.177773
853 1 0.45797 0.716186 0.0785678
854 1 0.461647 0.675091 0.105345
855 1 0.457424 0.524754 0.228633
856 1 0.453882 0.588565 0.187513
857 1 0.465421 0.692369 0.082268
858 1 0.469176 0.658281 0.108066
859 1 0.464923 0.506267 0.23282
860 1 0.46119 0.563556 0.192267
861 1 0.473086 0.67271 0.085133
862 1 0.47681 0.630703 0.115024
863 1 0.472136 0.490266 0.242927
864 1 0.468683 0.544479 0.196881
865 1 0.480758 0.636742 0.0979797
866 1 0.484603 0.593518 0.141352
867 1 0.479397 0.475576 0.265704
868 1 0.475841 0.525108 0.208453
869 1 0.488655 0.575626 0.14351
870 1 0.492461 0.494617 0.172979
871 1 0.486952 0.452291 0.295548
872 1 0.48328 0.503136 0.234967
873 1 0.496531 0.439348 0.188226
874 1 0.500256 0.387638 0.269212
875 1 0.494098 0.399093 0.373999
876 1 0.490991 0.438994 0.28375
877 1 0.504158 0.368479 0.299407
878 1 0.50709 0.377145 0.396688
879 1 0.500764 0.386599 0.486815
880 1 0.497936 0.391534 0.375781
881 1 0.510695 0.421303 0.440947
882 1 0.512826 0.490327 0.535685
883 1 0.506493 0.460998 0.620358
884 1 0.504754 0.406546 0.502498
885 1 0.515727 0.586241 0.571147
886 1 0.516787 0.698768 0.642595
887 1 0.510876 0.624331 0.726449
888 1 0.510092 0.527756 0.632885
889 1 0.518442 0.829113 0.643169
890 1 0.517531 0.965247 0.587523
891 1 0.51249 0.874461 0.738082
892 1 0.513529 0.731964 0.717131
893 1 0.516944 0.993826 0.453248
894 1 0.514509 0.954365 0.362333
895 1 0.510271 0.975642 0.544863
896 1 0.513318 0.962774 0.632921
897 1 0.514411 0.873563 0.261679
898 1 0.512102 0.809451 0.178057
899 1 0.507752 0.90641 0.32922
900 1 0.510732 0.952279 0.414871
901 1 0.511915 0.711388 0.0895681
902 1 0.509771 0.624277 0.0207634
903 1 0.505491 0.766703 0.145725
904 1 0.508284 0.831266 0.212192
905 1 0.509496 0.492806 -0.0105194
906 1 0.507475 0.377545 0.00344036
907 1 0.502988 0.572715 -0.00304214
908 1 0.506007 0.671045 0.0410343
909 1 0.507192 0.268864 0.0890978
910 1 0.504748 0.211451 0.169233