ITEM: TIMESTEP
122000
ITEM: NUMBER OF ATOMS
1216
ITEM: BOX BOUNDS ss ss ss
-0.0318707 364.885
-1.35815 9.32575
1.90297 13.1061
ITEM: ATOMS id type xs ys zs
1 1 0.00349247 0.421678 0.239082
2 1 0.00682941 0.353803 0.239067
3 1 0.00345144 0.156621 0.239082
4 1 9.87991e-05 0.220804 0.239075
5 1 0.0034767 0.819693 0.239086
6 1 0.00682546 0.753763 0.239041
7 1 0.00343121 0.554052 0.239077
8 1 0.00010039 0.620288 0.239077
9 1 0.0106249 0.415308 0.23792
10 1 0.0142905 0.350517 0.237243
11 1 0.0107344 0.169854 0.239419
12 1 0.00708117 0.207977 0.239331
13 1 0.0178774 0.416732 0.231896
14 1 0.0215473 0.358324 0.234359
15 1 0.0180167 0.170227 0.238586
16 1 0.0143638 0.211522 0.238873
17 1 0.0253623 0.418987 0.229989
18 1 0.0290213 0.358362 0.231569
19 1 0.0253313 0.175498 0.235006
20 1 0.0217222 0.217941 0.235622
21 1 0.032567 0.427355 0.234585
22 1 0.0361804 0.363909 0.242077
23 1 0.0326433 0.178365 0.224411
24 1 0.0290351 0.218737 0.228414
25 1 0.0398972 0.423562 0.240312
26 1 0.0437219 0.358097 0.232567
27 1 0.0400273 0.181482 0.218905
28 1 0.0362904 0.22157 0.23015
29 1 0.0473146 0.427001 0.24286
30 1 0.0509937 0.360104 0.243957
31 1 0.047431 0.176593 0.221383
32 1 0.043756 0.218889 0.219728
33 1 0.0545337 0.426178 0.247681
34 1 0.0581677 0.367237 0.240979
35 1 0.0546806 0.184045 0.215855
36 1 0.0510254 0.222784 0.227638
37 1 0.0617302 0.431782 0.23477
38 1 0.0656288 0.36211 0.229287
39 1 0.0618494 0.178285 0.22273
40 1 0.0583626 0.222527 0.224793
41 1 0.0691812 0.430791 0.2361
42 1 0.0729457 0.366209 0.237262
43 1 0.0691867 0.181513 0.237579
44 1 0.0655012 0.221027 0.228805
45 1 0.07661 0.428376 0.24062
46 1 0.0801669 0.366484 0.232092
47 1 0.0765158 0.179726 0.224866
48 1 0.0728133 0.223667 0.232033
49 1 0.0839218 0.424098 0.232655
50 1 0.0876722 0.365562 0.230238
51 1 0.0838446 0.185204 0.22065
52 1 0.0801322 0.224798 0.223565
53 1 0.0913003 0.429995 0.233698
54 1 0.0949569 0.367211 0.227431
55 1 0.0911721 0.183673 0.218626
56 1 0.0874929 0.225694 0.219755
57 1 0.0986245 0.437747 0.233435
58 1 0.102314 0.379366 0.224073
59 1 0.098591 0.191267 0.226432
60 1 0.0948825 0.228655 0.225126
61 1 0.105811 0.444928 0.233018
62 1 0.109534 0.378477 0.246291
63 1 0.105875 0.200554 0.237584
64 1 0.102179 0.235541 0.231152
65 1 0.113132 0.440834 0.255167
66 1 0.116716 0.379046 0.251338
67 1 0.113079 0.196824 0.251457
68 1 0.109524 0.240909 0.244264
69 1 0.12029 0.441047 0.243457
70 1 0.124065 0.377186 0.237327
71 1 0.120569 0.192492 0.249502
72 1 0.116953 0.232918 0.25863
73 1 0.127622 0.440106 0.244306
74 1 0.131393 0.375949 0.246312
75 1 0.127984 0.196313 0.247076
76 1 0.124224 0.236599 0.245141
77 1 0.135019 0.447058 0.243559
78 1 0.138569 0.381155 0.248104
79 1 0.135059 0.200579 0.26526
80 1 0.131381 0.235868 0.252321
81 1 0.142382 0.444892 0.23726
82 1 0.145938 0.377229 0.246433
83 1 0.142298 0.19561 0.280277
84 1 0.138643 0.243333 0.268911
85 1 0.149654 0.439686 0.240523
86 1 0.153381 0.380475 0.262228
87 1 0.149681 0.203865 0.288705
88 1 0.146 0.239591 0.272941
89 1 0.157036 0.442042 0.254368
90 1 0.160776 0.377826 0.26491
91 1 0.156937 0.206443 0.303801
92 1 0.153249 0.243531 0.28844
93 1 0.164382 0.442885 0.256473
94 1 0.167953 0.375864 0.268586
95 1 0.164347 0.20177 0.308258
96 1 0.160744 0.240408 0.291543
97 1 0.171653 0.438385 0.258385
98 1 0.175431 0.374852 0.272112
99 1 0.171583 0.202491 0.305827
100 1 0.167928 0.238975 0.301182
101 1 0.178932 0.437268 0.248773
102 1 0.182665 0.369948 0.258942
103 1 0.179007 0.195327 0.301194
104 1 0.175286 0.240368 0.294862
105 1 0.186358 0.440336 0.252673
106 1 0.189856 0.375155 0.265482
107 1 0.186424 0.194186 0.295413
108 1 0.182614 0.234845 0.285781
109 1 0.193501 0.442542 0.255845
110 1 0.197139 0.386355 0.275237
111 1 0.193717 0.205191 0.301139
112 1 0.19005 0.240879 0.291235
113 1 0.200868 0.452197 0.2676
114 1 0.204606 0.392999 0.2702
115 1 0.201039 0.209537 0.294791
116 1 0.197485 0.24643 0.285733
117 1 0.208139 0.452994 0.252641
118 1 0.211971 0.389051 0.268933
119 1 0.208113 0.217205 0.300234
120 1 0.204605 0.257168 0.291268
121 1 0.21561 0.450203 0.239255
122 1 0.219136 0.381507 0.239189
123 1 0.215355 0.210047 0.288905
124 1 0.211838 0.253845 0.30085
125 1 0.222971 0.441253 0.231372
126 1 0.226432 0.381998 0.253602
127 1 0.222668 0.207608 0.288468
128 1 0.21904 0.245381 0.269028
129 1 0.230213 0.441638 0.237934
130 1 0.23379 0.383077 0.260724
131 1 0.230128 0.20612 0.295892
132 1 0.226403 0.250532 0.291839
133 1 0.23744 0.443438 0.238107
134 1 0.241027 0.378811 0.257938
135 1 0.237425 0.204654 0.296717
136 1 0.233748 0.246203 0.287792
137 1 0.244848 0.434996 0.239531
138 1 0.248455 0.376149 0.259997
139 1 0.244819 0.200672 0.295114
140 1 0.241219 0.245134 0.284954
141 1 0.252262 0.437894 0.251079
142 1 0.255833 0.375731 0.269323
143 1 0.252227 0.198882 0.310201
144 1 0.248477 0.241057 0.288762
145 1 0.259621 0.43694 0.260435
146 1 0.26331 0.376407 0.286677
147 1 0.259602 0.205658 0.324077
148 1 0.255877 0.241029 0.308614
149 1 0.267025 0.436054 0.259739
150 1 0.270716 0.377867 0.291873
151 1 0.266879 0.2018 0.342299
152 1 0.263338 0.241642 0.324428
153 1 0.274262 0.436068 0.262893
154 1 0.277856 0.369256 0.276707
155 1 0.274215 0.204026 0.349644
156 1 0.270541 0.24352 0.331974
157 1 0.281526 0.428599 0.255206
158 1 0.285134 0.369487 0.271869
159 1 0.281437 0.201149 0.350215
160 1 0.277803 0.238366 0.333572
161 1 0.288723 0.433563 0.25552
162 1 0.29246 0.373686 0.276274
163 1 0.288814 0.200584 0.333077
164 1 0.285093 0.236532 0.318999
165 1 0.296189 0.436026 0.25096
166 1 0.299833 0.369746 0.269683
167 1 0.296197 0.203909 0.333578
168 1 0.292472 0.242453 0.326117
169 1 0.303413 0.43834 0.251056
170 1 0.30713 0.381036 0.2757
171 1 0.30349 0.204149 0.330928
172 1 0.299825 0.241517 0.316707
173 1 0.310997 0.442127 0.255627
174 1 0.314603 0.381514 0.278692
175 1 0.310809 0.212946 0.338705
176 1 0.307232 0.250475 0.319497
177 1 0.318319 0.440884 0.257056
178 1 0.322049 0.379076 0.282983
179 1 0.31821 0.208545 0.335285
180 1 0.314621 0.252286 0.328614
181 1 0.325648 0.44013 0.26596
182 1 0.329301 0.379819 0.281593
183 1 0.325674 0.204779 0.336531
184 1 0.32194 0.239844 0.322244
185 1 0.332929 0.44233 0.267929
186 1 0.336558 0.377535 0.289446
187 1 0.333068 0.206434 0.338609
188 1 0.329398 0.248015 0.32189
189 1 0.340149 0.442936 0.277388
190 1 0.343914 0.381623 0.297137
191 1 0.340309 0.207295 0.337701
192 1 0.336689 0.245645 0.330134
193 1 0.34763 0.44655 0.278601
194 1 0.351225 0.38349 0.296854
195 1 0.347632 0.215613 0.352775
196 1 0.34405 0.249131 0.332786
197 1 0.355029 0.44457 0.274826
198 1 0.358697 0.386498 0.296913
199 1 0.3551 0.218481 0.365966
200 1 0.351285 0.249748 0.349682
201 1 0.362613 0.443292 0.264595
202 1 0.366201 0.38154 0.28969
203 1 0.362463 0.216132 0.355746
204 1 0.358661 0.256918 0.345197
205 1 0.369663 0.44008 0.26264
206 1 0.373459 0.377231 0.282923
207 1 0.369703 0.213235 0.36315
208 1 0.366157 0.254367 0.34451
209 1 0.37705 0.434326 0.258019
210 1 0.380689 0.371326 0.290601
211 1 0.376914 0.210898 0.361031
212 1 0.37336 0.249568 0.340646
213 1 0.384297 0.429428 0.266321
214 1 0.387974 0.368831 0.291853
215 1 0.384302 0.215711 0.367108
216 1 0.380473 0.244212 0.344614
217 1 0.391698 0.430316 0.265603
218 1 0.395233 0.373534 0.296854
219 1 0.39171 0.211907 0.370476
220 1 0.388071 0.246143 0.35335
221 1 0.398951 0.430672 0.26314
222 1 0.402783 0.377767 0.292844
223 1 0.3991 0.211293 0.367503
224 1 0.395459 0.244252 0.353073
225 1 0.406455 0.430347 0.25859
226 1 0.410297 0.374617 0.282201
227 1 0.406427 0.213605 0.365324
228 1 0.402701 0.248591 0.349073
229 1 0.413954 0.422348 0.247949
230 1 0.417604 0.363925 0.277058
231 1 0.413813 0.205229 0.361944
232 1 0.410117 0.251068 0.340568
233 1 0.421304 0.422296 0.25205
234 1 0.425017 0.369536 0.289407
235 1 0.421298 0.213338 0.36729
236 1 0.417472 0.244376 0.348045
237 1 0.428653 0.431539 0.263847
238 1 0.432207 0.377129 0.296576
239 1 0.428637 0.213158 0.372282
240 1 0.424946 0.246528 0.352402
241 1 0.43596 0.424405 0.268002
242 1 0.439637 0.365865 0.299608
243 1 0.435843 0.211815 0.381918
244 1 0.432245 0.254349 0.359181
245 1 0.44362 0.41613 0.272702
246 1 0.447053 0.356664 0.308549
247 1 0.443132 0.207319 0.39557
248 1 0.439481 0.24466 0.370985
249 1 0.450814 0.410136 0.281934
250 1 0.454344 0.352993 0.327087
251 1 0.450358 0.197904 0.409466
252 1 0.446721 0.236655 0.378911
253 1 0.458259 0.401697 0.303569
254 1 0.461585 0.333314 0.335199
255 1 0.457566 0.181454 0.417154
256 1 0.454033 0.231342 0.390064
257 1 0.465308 0.38171 0.300213
258 1 0.46893 0.317145 0.330531
259 1 0.464977 0.166017 0.416175
260 1 0.461336 0.207148 0.399329
261 1 0.472743 0.372972 0.307432
262 1 0.476203 0.316173 0.35733
263 1 0.472189 0.153817 0.424778
264 1 0.468576 0.194588 0.392766
265 1 0.479894 0.372857 0.341998
266 1 0.483199 0.320244 0.390922
267 1 0.479315 0.15489 0.43693
268 1 0.475921 0.191504 0.414482
269 1 0.486757 0.368221 0.393545
270 1 0.489824 0.324685 0.46055
271 1 0.486268 0.170023 0.475692
272 1 0.482892 0.19104 0.427242
273 1 0.493414 0.366174 0.47768
274 1 0.495944 0.33864 0.573806
275 1 0.492082 0.193349 0.606514
276 1 0.489546 0.207969 0.52371
277 1 0.499569 0.385503 0.585851
278 1 0.501662 0.377855 0.693937
279 1 0.497537 0.243733 0.750913
280 1 0.49518 0.240359 0.660091
281 1 0.505317 0.432229 0.70652
282 1 0.506905 0.469214 0.818837
283 1 0.502581 0.343798 0.893891
284 1 0.500527 0.304941 0.798943
285 1 0.509693 0.562592 0.830908
286 1 0.509108 0.681685 0.908906
287 1 0.505007 0.542081 1.00129
288 1 0.504954 0.436527 0.931189
289 1 0.510164 0.805622 0.86164
290 1 0.507093 0.880511 0.800891
291 1 0.503883 0.774477 0.956492
292 1 0.505919 0.666815 0.988709
293 1 0.507367 0.941583 0.68501
294 1 0.504198 0.933315 0.589348
295 1 0.50093 0.875444 0.763535
296 1 0.503439 0.853199 0.855678
297 1 0.504847 0.914611 0.461952
298 1 0.502004 0.860166 0.380373
299 1 0.498298 0.861323 0.551959
300 1 0.500514 0.900727 0.642502
301 1 0.50268 0.808017 0.258168
302 1 0.499843 0.756211 0.179555
303 1 0.495833 0.814587 0.329684
304 1 0.498156 0.845026 0.430387
305 1 0.500497 0.666155 0.0813186
306 1 0.497591 0.586706 0.0321456
307 1 0.493624 0.724161 0.120591
308 1 0.495964 0.773883 0.206387
309 1 0.498198 0.445809 0.00826537
310 1 0.495258 0.354729 0.038433
311 1 0.491442 0.52012 0.00376182
312 1 0.493658 0.628342 0.0274891
313 1 0.495776 0.245402 0.126708
314 1 0.492842 0.178419 0.197979
315 1 0.488955 0.312767 0.0875043
316 1 0.491328 0.393621 0.0323602
317 1 0.493406 0.10053 0.307141
318 1 0.490519 0.0445238 0.38038
319 1 0.486521 0.114216 0.230344
320 1 0.488702 0.202802 0.163454
321 1 0.490849 0.0172212 0.516649
322 1 0.487432 0.0212025 0.598249
323 1 0.484228 -0.00495404 0.419144
324 1 0.486738 0.0402699 0.333553
325 1 0.488323 0.0974081 0.713585
326 1 0.487087 0.231871 0.701446
327 1 0.482233 0.130211 0.603682
328 1 0.483651 0.0109078 0.544947
329 1 0.489644 0.335814 0.720201
330 1 0.490278 0.446932 0.637817
331 1 0.484638 0.376544 0.574612
332 1 0.48367 0.255858 0.631428
333 1 0.493856 0.517374 0.636843
334 1 0.495391 0.574927 0.527647
335 1 0.489489 0.544846 0.455527
336 1 0.487471 0.478358 0.549654
337 1 0.499426 0.604915 0.51246
338 1 0.501803 0.604467 0.401101
339 1 0.49591 0.614734 0.32711
340 1 0.493127 0.598298 0.421856
341 1 0.506075 0.607453 0.396268
342 1 0.508965 0.590299 0.294899
343 1 0.503247 0.571175 0.217721
344 1 0.499755 0.597215 0.291087
345 1 0.512992 0.602372 0.30328
346 1 0.516179 0.546322 0.242766
347 1 0.511306 0.454175 0.178687
348 1 0.50711 0.530904 0.191277
349 1 0.520218 0.575729 0.258756
350 1 0.523606 0.521143 0.210826
351 1 0.518954 0.398766 0.125782
352 1 0.51534 0.439514 0.162711
353 1 0.52754 0.556847 0.241517
354 1 0.530902 0.496022 0.18673
355 1 0.526565 0.376663 0.0888542
356 1 0.522945 0.412068 0.123044
357 1 0.534956 0.530499 0.215546
358 1 0.538471 0.47121 0.175618
359 1 0.534131 0.343201 0.0669136
360 1 0.530447 0.390997 0.0980019
361 1 0.542364 0.505229 0.219504
362 1 0.546055 0.444986 0.177893
363 1 0.541723 0.322515 0.0601773
364 1 0.53814 0.367474 0.0860246
365 1 0.549675 0.481769 0.221708
366 1 0.553208 0.427042 0.180859
367 1 0.549084 0.287397 0.0759873
368 1 0.545546 0.336253 0.0908445
369 1 0.556886 0.470633 0.212567
370 1 0.560385 0.417513 0.172154
371 1 0.556598 0.272267 0.0838209
372 1 0.552894 0.310104 0.100044
373 1 0.564275 0.45814 0.206279
374 1 0.567733 0.407746 0.159464
375 1 0.563994 0.269005 0.0604592
376 1 0.560349 0.299115 0.0945942
377 1 0.571528 0.446648 0.201949
378 1 0.575189 0.393375 0.159544
379 1 0.571357 0.271261 0.0490327
380 1 0.567732 0.301365 0.0765783
381 1 0.578954 0.441999 0.201735
382 1 0.582497 0.386767 0.16147
383 1 0.578894 0.25064 0.0487367
384 1 0.575166 0.291838 0.0714251
385 1 0.586437 0.431314 0.196728
386 1 0.589999 0.381271 0.163677
387 1 0.586396 0.235896 0.0575884
388 1 0.582705 0.274426 0.0767544
389 1 0.593554 0.433723 0.194003
390 1 0.597306 0.373869 0.163076
391 1 0.593676 0.22656 0.0638197
392 1 0.590039 0.268423 0.0850737
393 1 0.601039 0.430255 0.195513
394 1 0.604673 0.382412 0.155554
395 1 0.601117 0.22925 0.0566283
396 1 0.597402 0.257242 0.0853777
397 1 0.608499 0.435801 0.183724
398 1 0.612096 0.380036 0.149969
399 1 0.608268 0.236697 0.0511747
400 1 0.604764 0.271003 0.0758078
401 1 0.615705 0.431555 0.185856
402 1 0.619213 0.379043 0.142869
403 1 0.615558 0.222366 0.0530366
404 1 0.611943 0.263051 0.0743411
405 1 0.62281 0.441984 0.17404
406 1 0.626675 0.385617 0.138917
407 1 0.622997 0.229813 0.0490846
408 1 0.619296 0.265379 0.0701588
409 1 0.630409 0.435443 0.177676
410 1 0.634091 0.379801 0.149668
411 1 0.630408 0.241421 0.0397459
412 1 0.626542 0.269243 0.066798
413 1 0.637937 0.440268 0.188453
414 1 0.641586 0.388879 0.147431
415 1 0.637785 0.239381 0.0529552
416 1 0.634179 0.273046 0.0651187
417 1 0.645144 0.443764 0.175592
418 1 0.648699 0.394065 0.139902
419 1 0.645088 0.228831 0.0533106
420 1 0.641499 0.268404 0.0771715
421 1 0.652526 0.444653 0.179652
422 1 0.656135 0.385575 0.15817
423 1 0.652355 0.228793 0.0734494
424 1 0.648621 0.267999 0.0815161
425 1 0.65972 0.444107 0.194059
426 1 0.663346 0.386671 0.157739
427 1 0.659772 0.229867 0.0689461
428 1 0.656119 0.266118 0.0882234
429 1 0.6669 0.444023 0.187708
430 1 0.670609 0.382697 0.162064
431 1 0.666952 0.229198 0.0796396
432 1 0.66329 0.269248 0.0949665
433 1 0.674259 0.436856 0.20143
434 1 0.677877 0.386777 0.165404
435 1 0.67433 0.227072 0.0755068
436 1 0.670588 0.264597 0.0945225
437 1 0.681558 0.441579 0.196221
438 1 0.685292 0.381542 0.174094
439 1 0.681657 0.228074 0.0857788
440 1 0.677959 0.267715 0.096483
441 1 0.688944 0.437129 0.206851
442 1 0.692651 0.38115 0.18669
443 1 0.689051 0.213699 0.106006
444 1 0.685379 0.254654 0.111455
445 1 0.696204 0.442054 0.213243
446 1 0.699957 0.377149 0.197136
447 1 0.696306 0.211931 0.126581
448 1 0.69262 0.248909 0.133152
449 1 0.703646 0.439351 0.21933
450 1 0.707255 0.379336 0.207256
451 1 0.7037 0.214582 0.134638
452 1 0.699962 0.24795 0.146274
453 1 0.71083 0.446858 0.228819
454 1 0.714486 0.386683 0.214384
455 1 0.71103 0.218145 0.144752
456 1 0.707316 0.251712 0.151936
457 1 0.718154 0.448316 0.222403
458 1 0.721865 0.386153 0.189948
459 1 0.71828 0.214461 0.143501
460 1 0.714667 0.254557 0.165588
461 1 0.72565 0.439958 0.215275
462 1 0.72919 0.378603 0.201309
463 1 0.725511 0.207416 0.140873
464 1 0.721898 0.252184 0.151674
465 1 0.732918 0.448412 0.210096
466 1 0.736566 0.386666 0.186974
467 1 0.733006 0.212408 0.147135
468 1 0.72918 0.24499 0.159066
469 1 0.740105 0.45372 0.215066
470 1 0.743766 0.387879 0.203235
471 1 0.740262 0.216267 0.138214
472 1 0.736674 0.256217 0.148666
473 1 0.747403 0.449428 0.222258
474 1 0.75101 0.387439 0.202008
475 1 0.747584 0.212728 0.151468
476 1 0.743895 0.255989 0.157933
477 1 0.7549 0.444771 0.222201
478 1 0.758479 0.381587 0.202747
479 1 0.75485 0.211993 0.155583
480 1 0.75128 0.248935 0.164796
481 1 0.762242 0.44538 0.228564
482 1 0.76578 0.380816 0.217628
483 1 0.762108 0.207892 0.163706
484 1 0.7585 0.247925 0.168838
485 1 0.769522 0.446938 0.233971
486 1 0.773095 0.381133 0.214018
487 1 0.769307 0.205412 0.174723
488 1 0.765736 0.246867 0.180488
489 1 0.77674 0.438565 0.234496
490 1 0.780372 0.378811 0.220913
491 1 0.776617 0.209744 0.167071
492 1 0.773038 0.245041 0.180993
493 1 0.784267 0.442455 0.246557
494 1 0.787818 0.376006 0.226166
495 1 0.783967 0.209657 0.163095
496 1 0.780241 0.24757 0.174656
497 1 0.791459 0.442858 0.239275
498 1 0.794982 0.377177 0.224992
499 1 0.79142 0.20229 0.167889
500 1 0.787736 0.243003 0.180913
501 1 0.798831 0.439427 0.241592
502 1 0.802432 0.375047 0.222152
503 1 0.79871 0.209861 0.166552
504 1 0.795127 0.243668 0.176284
505 1 0.806131 0.440085 0.23771
506 1 0.809825 0.37241 0.224924
507 1 0.806021 0.201411 0.170767
508 1 0.802445 0.243565 0.181449
509 1 0.813623 0.438995 0.233686
510 1 0.817256 0.370817 0.227324
511 1 0.813657 0.194357 0.181513
512 1 0.809866 0.235307 0.18383
513 1 0.820934 0.438274 0.246242
514 1 0.8245 0.373718 0.232806
515 1 0.820949 0.197823 0.188633
516 1 0.817289 0.237965 0.194503
517 1 0.828102 0.434457 0.247925
518 1 0.831826 0.371133 0.24126
519 1 0.828277 0.194877 0.199865
520 1 0.824576 0.237406 0.19859
521 1 0.835406 0.432719 0.255307
522 1 0.839279 0.367375 0.247613
523 1 0.835415 0.193871 0.213418
524 1 0.831722 0.235815 0.218532
525 1 0.842892 0.434051 0.256805
526 1 0.846548 0.369463 0.240408
527 1 0.84271 0.196589 0.198443
528 1 0.839022 0.232179 0.220463
529 1 0.850169 0.429497 0.245183
530 1 0.853702 0.368241 0.236751
531 1 0.849975 0.198556 0.189555
532 1 0.846422 0.238478 0.206332
533 1 0.857349 0.431151 0.245973
534 1 0.86105 0.371446 0.230084
535 1 0.857332 0.191815 0.197833
536 1 0.853707 0.236647 0.20369
537 1 0.864731 0.436041 0.238094
538 1 0.868428 0.37281 0.230864
539 1 0.864587 0.196138 0.202413
540 1 0.861031 0.236604 0.206539
541 1 0.872137 0.433415 0.23825
542 1 0.875976 0.369432 0.224917
543 1 0.872048 0.191922 0.199475
544 1 0.868348 0.233777 0.208948
545 1 0.879661 0.432361 0.227842
546 1 0.883095 0.365236 0.228195
547 1 0.87942 0.189312 0.209226
548 1 0.875689 0.227554 0.209021
549 1 0.886892 0.422465 0.234243
550 1 0.890378 0.359882 0.234529
551 1 0.886821 0.18405 0.202529
552 1 0.883105 0.223754 0.21454
553 1 0.893964 0.425708 0.235358
554 1 0.897701 0.361438 0.224847
555 1 0.894114 0.182926 0.20323
556 1 0.890532 0.226249 0.214577
557 1 0.901475 0.421394 0.231402
558 1 0.905081 0.350786 0.225475
559 1 0.901451 0.1759 0.212536
560 1 0.897847 0.221515 0.210427
561 1 0.908805 0.416148 0.234836
562 1 0.912426 0.347263 0.223909
563 1 0.908763 0.169745 0.210966
564 1 0.905091 0.212857 0.211784
565 1 0.915952 0.419967 0.2193
566 1 0.919735 0.352918 0.218373
567 1 0.916033 0.168103 0.219543
568 1 0.912392 0.209273 0.21472
569 1 0.92328 0.419906 0.226966
570 1 0.927113 0.353191 0.22416
571 1 0.923349 0.173256 0.207058
572 1 0.919618 0.210347 0.213866
573 1 0.930726 0.417433 0.230341
574 1 0.934261 0.351965 0.238069
575 1 0.930672 0.181864 0.220774
576 1 0.927022 0.21872 0.217581
577 1 0.938002 0.421877 0.236306
578 1 0.941608 0.356226 0.219652
579 1 0.938122 0.172063 0.212682
580 1 0.934479 0.21501 0.225652
581 1 0.94539 0.420106 0.224005
582 1 0.94916 0.353436 0.213466
583 1 0.94541 0.17344 0.208399
584 1 0.941724 0.212887 0.208692
585 1 0.952882 0.413265 0.226161
586 1 0.95647 0.350652 0.229826
587 1 0.952644 0.169528 0.204536
588 1 0.949039 0.21788 0.207455
589 1 0.960146 0.411421 0.227478
590 1 0.963936 0.348666 0.21946
591 1 0.960362 0.165265 0.21796
592 1 0.956503 0.21095 0.222009
593 1 0.967512 0.418464 0.220203
594 1 0.971126 0.353586 0.213037
595 1 0.967679 0.163979 0.212628
596 1 0.964103 0.210325 0.213825
597 1 0.974772 0.415613 0.21334
598 1 0.978334 0.356568 0.218663
599 1 0.974739 0.171248 0.22574
600 1 0.971112 0.211299 0.218348
601 1 0.982063 0.422065 0.221792
602 1 0.985754 0.359596 0.236066
603 1 0.982243 0.177631 0.243445
604 1 0.978496 0.21413 0.228521
605 1 0.98941 0.423348 0.237532
606 1 0.993045 0.358138 0.238713
607 1 0.989483 0.182534 0.237978
608 1 0.985806 0.220951 0.236431
609 1 0.0105584 0.792684 0.236091
610 1 0.0142374 0.754339 0.232959
611 1 0.0106335 0.551897 0.237127
612 1 0.00699698 0.617053 0.238774
613 1 0.0178801 0.791245 0.227055
614 1 0.021562 0.756366 0.219915
615 1 0.0178551 0.552143 0.229863
616 1 0.0142885 0.615696 0.234333
617 1 0.0251118 0.804709 0.221256
618 1 0.0289005 0.76794 0.225916
619 1 0.0254279 0.558889 0.227413
620 1 0.021636 0.61682 0.223519
621 1 0.0324615 0.814271 0.23848
622 1 0.0362959 0.771251 0.244802
623 1 0.0325858 0.565442 0.237349
624 1 0.0289003 0.63053 0.225686
625 1 0.0398675 0.808477 0.255589
626 1 0.0434804 0.764712 0.266644
627 1 0.0398712 0.560955 0.237127
628 1 0.0362155 0.633438 0.242021
629 1 0.0470223 0.802167 0.264994
630 1 0.0507293 0.76275 0.262396
631 1 0.0472706 0.560845 0.25128
632 1 0.0435587 0.621776 0.257492
633 1 0.0542986 0.807722 0.261584
634 1 0.0580001 0.765603 0.263664
635 1 0.0545358 0.564001 0.249829
636 1 0.050862 0.625957 0.256227
637 1 0.0617265 0.809678 0.26666
638 1 0.0653565 0.766556 0.25572
639 1 0.0617281 0.564862 0.245338
640 1 0.0580456 0.627101 0.245868
641 1 0.0690654 0.810994 0.25786
642 1 0.07273 0.768975 0.252388
643 1 0.069066 0.565049 0.240023
644 1 0.0653217 0.628748 0.238276
645 1 0.0765391 0.809294 0.254173
646 1 0.0801827 0.768673 0.25064
647 1 0.0766965 0.563664 0.244628
648 1 0.0728364 0.628991 0.244043
649 1 0.0838761 0.805192 0.240906
650 1 0.0875063 0.770482 0.235334
651 1 0.0840925 0.562639 0.237361
652 1 0.0802981 0.628491 0.242616
653 1 0.0910983 0.821754 0.234788
654 1 0.0947363 0.779547 0.239984
655 1 0.0912873 0.566484 0.242113
656 1 0.0876153 0.628078 0.238117
657 1 0.0985326 0.818182 0.231594
658 1 0.102328 0.781436 0.23419
659 1 0.0986233 0.571539 0.237797
660 1 0.0950222 0.636644 0.2483
661 1 0.105924 0.82453 0.239611
662 1 0.109584 0.786287 0.23586
663 1 0.105999 0.580939 0.23866
664 1 0.102363 0.642418 0.238914
665 1 0.11337 0.823694 0.238314
666 1 0.116927 0.775578 0.234377
667 1 0.113262 0.579617 0.251224
668 1 0.109567 0.649885 0.243586
669 1 0.120471 0.824917 0.228776
670 1 0.124175 0.783611 0.230115
671 1 0.120469 0.577634 0.243264
672 1 0.116918 0.638966 0.249425
673 1 0.127828 0.821844 0.217853
674 1 0.13145 0.780809 0.211706
675 1 0.127695 0.573598 0.238059
676 1 0.124154 0.644557 0.239903
677 1 0.134952 0.825939 0.206718
678 1 0.138577 0.784806 0.201033
679 1 0.134997 0.57783 0.22459
680 1 0.13141 0.641337 0.228335
681 1 0.142107 0.823837 0.190006
682 1 0.145822 0.776156 0.186045
683 1 0.142215 0.577075 0.216027
684 1 0.138591 0.644359 0.2157
685 1 0.149519 0.817232 0.179888
686 1 0.153222 0.77876 0.191911
687 1 0.14963 0.574519 0.220354
688 1 0.145938 0.641721 0.205826
689 1 0.156977 0.820023 0.179626
690 1 0.160563 0.774574 0.193633
691 1 0.156962 0.572638 0.230025
692 1 0.153364 0.640308 0.2097
693 1 0.164261 0.813229 0.184652
694 1 0.16802 0.772682 0.187003
695 1 0.164245 0.577213 0.230299
696 1 0.160605 0.639483 0.225091
697 1 0.171706 0.812061 0.179086
698 1 0.175285 0.763947 0.17898
699 1 0.171482 0.571878 0.219943
700 1 0.167868 0.635294 0.215242
701 1 0.178879 0.811179 0.176057
702 1 0.182453 0.774364 0.18496
703 1 0.178982 0.565752 0.212192
704 1 0.175281 0.630116 0.194583
705 1 0.186043 0.814252 0.175196
706 1 0.189777 0.773962 0.185304
707 1 0.186216 0.574192 0.225061
708 1 0.182461 0.633403 0.203984
709 1 0.193382 0.816091 0.168905
710 1 0.197111 0.776004 0.170401
711 1 0.19346 0.580808 0.231238
712 1 0.189895 0.642609 0.222814
713 1 0.200816 0.817518 0.154987
714 1 0.204484 0.779308 0.163075
715 1 0.200927 0.583091 0.230343
716 1 0.197166 0.643215 0.212894
717 1 0.208123 0.816052 0.142424
718 1 0.211899 0.779777 0.154512
719 1 0.208389 0.583031 0.221742
720 1 0.204609 0.648383 0.209911
721 1 0.215545 0.822026 0.126448
722 1 0.219345 0.778051 0.134312
723 1 0.215493 0.581325 0.200575
724 1 0.212002 0.645474 0.19195
725 1 0.223234 0.815816 0.129547
726 1 0.226799 0.772737 0.151541
727 1 0.222801 0.574636 0.193401
728 1 0.219197 0.641392 0.180451
729 1 0.230447 0.803964 0.137981
730 1 0.233961 0.760334 0.14471
731 1 0.230351 0.575878 0.203175
732 1 0.226498 0.635256 0.180356
733 1 0.237598 0.800009 0.137807
734 1 0.241194 0.762069 0.149008
735 1 0.237516 0.573421 0.207012
736 1 0.23398 0.635658 0.186185
737 1 0.244929 0.798634 0.123535
738 1 0.248688 0.754999 0.140842
739 1 0.24496 0.567553 0.210288
740 1 0.241317 0.63298 0.196481
741 1 0.252335 0.795572 0.13015
742 1 0.255855 0.762295 0.155793
743 1 0.252104 0.566929 0.215459
744 1 0.248572 0.62845 0.189044
745 1 0.259534 0.794345 0.143162
746 1 0.263235 0.755989 0.153783
747 1 0.259559 0.569796 0.22789
748 1 0.255871 0.632262 0.202979
749 1 0.2669 0.796191 0.142036
750 1 0.270509 0.758547 0.158532
751 1 0.266906 0.562191 0.209753
752 1 0.263244 0.623813 0.198521
753 1 0.274173 0.797358 0.147974
754 1 0.277775 0.74957 0.154256
755 1 0.274166 0.560112 0.21489
756 1 0.270457 0.620562 0.19424
757 1 0.281435 0.792231 0.141917
758 1 0.284982 0.754005 0.154004
759 1 0.281405 0.557527 0.211696
760 1 0.277802 0.616496 0.186249
761 1 0.288669 0.7992 0.149173
762 1 0.292476 0.760792 0.157146
763 1 0.288751 0.561311 0.21124
764 1 0.285059 0.620049 0.191702
765 1 0.296201 0.800417 0.146289
766 1 0.299969 0.763994 0.160991
767 1 0.295909 0.567686 0.214731
768 1 0.292369 0.630016 0.195515
769 1 0.303731 0.80029 0.144758
770 1 0.307477 0.758708 0.160325
771 1 0.30346 0.569228 0.215119
772 1 0.299743 0.628906 0.197155
773 1 0.311097 0.802607 0.14621
774 1 0.31477 0.762125 0.152911
775 1 0.310969 0.572467 0.209246
776 1 0.30726 0.63064 0.198583
777 1 0.318434 0.799127 0.144647
778 1 0.322058 0.76816 0.159171
779 1 0.318284 0.568693 0.215751
780 1 0.314589 0.632674 0.191251
781 1 0.3257 0.807517 0.148581
782 1 0.329256 0.767772 0.168205
783 1 0.325676 0.574513 0.225988
784 1 0.32206 0.636439 0.2037
785 1 0.332911 0.808227 0.163352
786 1 0.336567 0.767423 0.17107
787 1 0.332988 0.572881 0.225168
788 1 0.329309 0.633984 0.206979
789 1 0.340182 0.809631 0.156757
790 1 0.343903 0.772961 0.177745
791 1 0.340132 0.575604 0.233809
792 1 0.336563 0.632006 0.209073
793 1 0.347605 0.81079 0.169346
794 1 0.351281 0.778252 0.181463
795 1 0.347586 0.577933 0.241341
796 1 0.343818 0.63658 0.216573
797 1 0.355027 0.808879 0.159096
798 1 0.358764 0.766799 0.163456
799 1 0.354982 0.574197 0.240931
800 1 0.351351 0.641241 0.219444
801 1 0.362589 0.801506 0.140944
802 1 0.366374 0.756328 0.14008
803 1 0.362407 0.568839 0.216019
804 1 0.358596 0.638831 0.209637
805 1 0.369997 0.792747 0.129
806 1 0.37367 0.754211 0.134482
807 1 0.369799 0.565212 0.213997
808 1 0.36601 0.625786 0.188957
809 1 0.377422 0.780958 0.106222
810 1 0.381059 0.734296 0.115587
811 1 0.377247 0.558245 0.207627
812 1 0.373469 0.620531 0.186631
813 1 0.384694 0.770705 0.0932201
814 1 0.388322 0.736596 0.113476
815 1 0.384513 0.559323 0.207257
816 1 0.38073 0.615133 0.179554
817 1 0.391934 0.762936 0.0842802
818 1 0.395454 0.724056 0.0971811
819 1 0.391751 0.5484 0.202011
820 1 0.388243 0.609811 0.174254
821 1 0.399048 0.758728 0.0758722
822 1 0.402637 0.724662 0.103608
823 1 0.398999 0.550129 0.196814
824 1 0.39537 0.60651 0.166486
825 1 0.406461 0.75773 0.0798107
826 1 0.41025 0.723007 0.0906029
827 1 0.406419 0.546774 0.196068
828 1 0.402763 0.602216 0.167236
829 1 0.413976 0.75736 0.0779646
830 1 0.41773 0.724944 0.0933046
831 1 0.413999 0.546498 0.192282
832 1 0.410133 0.606991 0.160742
833 1 0.421468 0.764399 0.0760679
834 1 0.425166 0.728543 0.0926723
835 1 0.421501 0.542735 0.185084
836 1 0.417806 0.600264 0.15635
837 1 0.428902 0.763319 0.0759165
838 1 0.432644 0.716919 0.0953305
839 1 0.42874 0.548285 0.191337
840 1 0.425027 0.602713 0.158902
841 1 0.436476 0.751785 0.0902632
842 1 0.440097 0.718412 0.11537
843 1 0.435986 0.542438 0.201047
844 1 0.432414 0.597803 0.165789
845 1 0.443867 0.74763 0.0912344
846 1 0.447554 0.702716 0.110928
847 1 0.443534 0.52837 0.20203
848 1 0.439642 0.592125 0.174357
849 1 0.451341 0.734062 0.0930555
850 1 0.455103 0.692806 0.115796
851 1 0.451116 0.519322 0.203479
852 1 0.447413 0.579959 0.165432
853 1 0.458807 0.720665 0.0964162
854 1 0.462628 0.686292 0.117527
855 1 0.458389 0.515898 0.223652
856 1 0.454807 0.57048 0.180503
857 1 0.46654 0.715723 0.108117
858 1 0.470036 0.671148 0.142106
859 1 0.465789 0.499219 0.232832
860 1 0.46231 0.56235 0.19161
861 1 0.473879 0.690479 0.113414
862 1 0.47752 0.644967 0.142849
863 1 0.47321 0.493288 0.247707
864 1 0.469657 0.552176 0.213729
865 1 0.481353 0.657066 0.125016
866 1 0.485167 0.61107 0.160017
867 1 0.480328 0.486057 0.27051
868 1 0.476792 0.540828 0.229915
869 1 0.489349 0.597852 0.162028
870 1 0.492932 0.529824 0.187074
871 1 0.487558 0.455437 0.301443
872 1 0.484301 0.518437 0.248246
873 1 0.496811 0.46737 0.1886
874 1 0.500274 0.401522 0.2505
875 1 0.494682 0.416971 0.373852
876 1 0.491854 0.459282 0.291637
877 1 0.504198 0.388953 0.282984
878 1 0.507309 0.40945 0.36878
879 1 0.501155 0.413039 0.475036
880 1 0.498606 0.420058 0.368949
881 1 0.511208 0.451789 0.408146
882 1 0.513591 0.507681 0.50866
883 1 0.507298 0.455151 0.593515
884 1 0.505183 0.435844 0.483846
885 1 0.516607 0.588616 0.560086
886 1 0.51771 0.673754 0.651596
887 1 0.512078 0.581158 0.726684
888 1 0.510956 0.516056 0.614062
889 1 0.519436 0.799989 0.679542
890 1 0.518261 0.931103 0.666954
891 1 0.513636 0.808286 0.791374
892 1 0.514884 0.67961 0.744453
893 1 0.51787 0.991379 0.554851
894 1 0.515567 0.987047 0.456285
895 1 0.511133 0.957512 0.63162
896 1 0.514366 0.91572 0.714484
897 1 0.515259 0.930785 0.346995
898 1 0.513142 0.861374 0.262653
899 1 0.508617 0.926739 0.41487
900 1 0.511513 0.971383 0.496789
901 1 0.513297 0.766129 0.17525
902 1 0.511273 0.693653 0.0907427
903 1 0.506382 0.799404 0.217913
904 1 0.509224 0.865132 0.288969
905 1 0.511179 0.576766 0.028624
906 1 0.508895 0.474761 0.00451183
907 1 0.504387 0.643161 0.0476603
908 1 0.507336 0.724817 0.109801
909 1 0.508773 0.340989 0.0488884
910 1 0.506429 0.262466 0.11902
911 1 0.502129 0.413904 0.0246846