ITEM: TIMESTEP
248000
ITEM: NUMBER OF ATOMS
1216
ITEM: BOX BOUNDS ss ss ss
-0.0318707 369.378
-1.09737 9.15489
2.03372 13.013
ITEM: ATOMS id type xs ys zs
1 1 0.00344999 0.413995 0.232048
2 1 0.00674635 0.343262 0.232032
3 1 0.00340946 0.137778 0.232048
4 1 9.75975e-05 0.204663 0.232041
5 1 0.00343442 0.828767 0.232052
6 1 0.00674245 0.760061 0.232006
7 1 0.00338948 0.551942 0.232043
8 1 9.91693e-05 0.620967 0.232043
9 1 0.0104957 0.407357 0.230862
10 1 0.0141167 0.339838 0.230171
11 1 0.0106039 0.151568 0.232392
12 1 0.00699505 0.191296 0.232302
13 1 0.0177438 0.404112 0.222044
14 1 0.021328 0.339559 0.230056
15 1 0.0177731 0.158216 0.227819
16 1 0.0141891 0.194991 0.231834
17 1 0.0251561 0.411583 0.230818
18 1 0.0286813 0.347505 0.242552
19 1 0.0251657 0.157592 0.251027
20 1 0.0215492 0.193013 0.23445
21 1 0.0324452 0.409811 0.22607
22 1 0.0360485 0.349228 0.230911
23 1 0.0324605 0.166726 0.255684
24 1 0.0287894 0.20176 0.25717
25 1 0.0396971 0.412608 0.22304
26 1 0.0434495 0.347192 0.23511
27 1 0.0397751 0.158807 0.253228
28 1 0.0361665 0.205814 0.248499
29 1 0.0472607 0.409731 0.225354
30 1 0.0508095 0.344285 0.235706
31 1 0.0470505 0.154197 0.248574
32 1 0.043441 0.198016 0.245352
33 1 0.0543495 0.416696 0.234314
34 1 0.0581233 0.350206 0.240386
35 1 0.0543597 0.158527 0.252287
36 1 0.0506052 0.200019 0.248564
37 1 0.0617281 0.414136 0.240625
38 1 0.0652725 0.3526 0.259243
39 1 0.0616861 0.158864 0.25091
40 1 0.0580589 0.203496 0.243009
41 1 0.068929 0.419001 0.249992
42 1 0.0725869 0.355356 0.252688
43 1 0.0689965 0.167674 0.260542
44 1 0.065295 0.201381 0.260783
45 1 0.0762639 0.422791 0.250229
46 1 0.0799372 0.355569 0.25174
47 1 0.0764317 0.16833 0.269903
48 1 0.072728 0.211412 0.26729
49 1 0.083565 0.420637 0.24428
50 1 0.0872898 0.356616 0.257927
51 1 0.0837079 0.173985 0.273964
52 1 0.0800967 0.210966 0.262016
53 1 0.091014 0.428026 0.246547
54 1 0.0946003 0.356602 0.249958
55 1 0.0910573 0.169916 0.280391
56 1 0.0873313 0.211441 0.273629
57 1 0.0981811 0.426386 0.2429
58 1 0.101939 0.356292 0.245183
59 1 0.098458 0.17203 0.275052
60 1 0.09461 0.216389 0.271663
61 1 0.105583 0.42175 0.227962
62 1 0.109439 0.358328 0.236215
63 1 0.10577 0.168058 0.274142
64 1 0.102084 0.213056 0.271619
65 1 0.113062 0.421024 0.223278
66 1 0.116646 0.354954 0.237188
67 1 0.113108 0.178087 0.266256
68 1 0.109449 0.213893 0.266668
69 1 0.120222 0.42518 0.236962
70 1 0.123822 0.361494 0.255301
71 1 0.120294 0.178538 0.279064
72 1 0.116709 0.215961 0.262728
73 1 0.127385 0.4248 0.249959
74 1 0.131234 0.359596 0.264083
75 1 0.127618 0.176021 0.288826
76 1 0.123911 0.217586 0.27452
77 1 0.135128 0.420812 0.250222
78 1 0.138894 0.35316 0.264047
79 1 0.134927 0.170832 0.284498
80 1 0.131272 0.217115 0.286684
81 1 0.142458 0.423302 0.252194
82 1 0.146141 0.359563 0.269241
83 1 0.1424 0.17237 0.299743
84 1 0.138677 0.207757 0.283592
85 1 0.149905 0.426987 0.264762
86 1 0.153516 0.3603 0.269549
87 1 0.149763 0.177535 0.315897
88 1 0.146049 0.215697 0.300195
89 1 0.157075 0.426495 0.256325
90 1 0.160828 0.359711 0.261452
91 1 0.156905 0.180934 0.303271
92 1 0.15331 0.222773 0.302466
93 1 0.16433 0.427427 0.252159
94 1 0.16804 0.363261 0.269598
95 1 0.164375 0.175041 0.307735
96 1 0.160722 0.219829 0.296469
97 1 0.171789 0.423071 0.251917
98 1 0.175512 0.363482 0.27225
99 1 0.171585 0.17842 0.303885
100 1 0.168049 0.217591 0.298094
101 1 0.179159 0.429709 0.267702
102 1 0.182651 0.361033 0.285142
103 1 0.17889 0.175349 0.316605
104 1 0.175248 0.216955 0.3041
105 1 0.186385 0.42492 0.266639
106 1 0.19005 0.361285 0.274135
107 1 0.186286 0.175511 0.313745
108 1 0.182508 0.215272 0.30535
109 1 0.193822 0.419609 0.260299
110 1 0.197311 0.347578 0.27547
111 1 0.193496 0.172039 0.31069
112 1 0.189895 0.216976 0.302522
113 1 0.201084 0.414896 0.257198
114 1 0.204867 0.354157 0.266436
115 1 0.200987 0.165938 0.309789
116 1 0.19725 0.204001 0.301549
117 1 0.208453 0.413872 0.246349
118 1 0.212057 0.355151 0.260911
119 1 0.208346 0.17627 0.326766
120 1 0.20458 0.213084 0.302575
121 1 0.215628 0.426044 0.244655
122 1 0.219311 0.358308 0.263831
123 1 0.215628 0.17761 0.328403
124 1 0.212039 0.215179 0.310886
125 1 0.223082 0.423573 0.250045
126 1 0.226735 0.357088 0.270385
127 1 0.223071 0.169291 0.318588
128 1 0.219295 0.210111 0.309108
129 1 0.230259 0.428574 0.256183
130 1 0.234023 0.369112 0.286073
131 1 0.230501 0.185111 0.329113
132 1 0.226723 0.214462 0.305785
133 1 0.237769 0.432215 0.255538
134 1 0.241393 0.366912 0.273549
135 1 0.237745 0.188144 0.327659
136 1 0.23414 0.236072 0.326261
137 1 0.244982 0.424757 0.250029
138 1 0.248719 0.353107 0.264995
139 1 0.244955 0.178022 0.313841
140 1 0.24138 0.224688 0.312297
141 1 0.252484 0.419456 0.250671
142 1 0.256101 0.357918 0.273536
143 1 0.252331 0.173481 0.320801
144 1 0.24866 0.215023 0.30958
145 1 0.259726 0.424502 0.257431
146 1 0.263369 0.364928 0.267266
147 1 0.259746 0.17454 0.301308
148 1 0.256003 0.215814 0.299582
149 1 0.267055 0.429156 0.255821
150 1 0.270543 0.368756 0.27628
151 1 0.266974 0.178016 0.302948
152 1 0.263406 0.218396 0.293575
153 1 0.274281 0.436805 0.263958
154 1 0.278021 0.373713 0.290943
155 1 0.274307 0.188231 0.32064
156 1 0.270605 0.225965 0.300814
157 1 0.281663 0.43418 0.270047
158 1 0.285265 0.364879 0.286865
159 1 0.281667 0.188547 0.324442
160 1 0.277977 0.229995 0.314022
161 1 0.28901 0.428027 0.261924
162 1 0.292501 0.360766 0.272009
163 1 0.28905 0.181165 0.325594
164 1 0.285336 0.225782 0.319245
165 1 0.296301 0.428225 0.252653
166 1 0.299835 0.362102 0.272673
167 1 0.296145 0.179733 0.32573
168 1 0.292698 0.218709 0.312958
169 1 0.303416 0.425297 0.256161
170 1 0.307064 0.364475 0.283904
171 1 0.30341 0.181938 0.334265
172 1 0.299702 0.221577 0.314063
173 1 0.310789 0.431645 0.2622
174 1 0.314429 0.367816 0.289817
175 1 0.310656 0.198758 0.35947
176 1 0.306954 0.225404 0.338535
177 1 0.317997 0.433672 0.261844
178 1 0.321528 0.371127 0.290142
179 1 0.31815 0.198711 0.360675
180 1 0.314377 0.236484 0.346573
181 1 0.325409 0.435928 0.266321
182 1 0.329001 0.373174 0.301251
183 1 0.325433 0.206918 0.377244
184 1 0.321835 0.236109 0.344908
185 1 0.332724 0.428375 0.268579
186 1 0.336581 0.374932 0.303716
187 1 0.332682 0.216635 0.389016
188 1 0.328958 0.249878 0.364573
189 1 0.340082 0.425938 0.26718
190 1 0.343794 0.372323 0.300917
191 1 0.340052 0.214963 0.39492
192 1 0.33632 0.2535 0.380133
193 1 0.347683 0.429583 0.276392
194 1 0.351212 0.375321 0.313032
195 1 0.347517 0.211592 0.394335
196 1 0.343756 0.249628 0.370193
197 1 0.354993 0.429589 0.270412
198 1 0.358711 0.364608 0.299709
199 1 0.354924 0.198061 0.37948
200 1 0.351302 0.244889 0.369062
201 1 0.362217 0.437179 0.27827
202 1 0.365879 0.378346 0.302037
203 1 0.362203 0.204945 0.379847
204 1 0.358522 0.235316 0.356912
205 1 0.369441 0.431862 0.266854
206 1 0.373015 0.379965 0.299574
207 1 0.369433 0.216786 0.389072
208 1 0.365785 0.249772 0.364633
209 1 0.376715 0.441215 0.267839
210 1 0.380201 0.37941 0.306611
211 1 0.376789 0.21278 0.392635
212 1 0.373076 0.255414 0.370729
213 1 0.383816 0.43987 0.286012
214 1 0.387487 0.387631 0.321213
215 1 0.383985 0.218134 0.404984
216 1 0.380316 0.254095 0.373458
217 1 0.391119 0.440854 0.287641
218 1 0.394936 0.385824 0.321295
219 1 0.391176 0.223425 0.410179
220 1 0.38755 0.263781 0.39075
221 1 0.398694 0.441269 0.288651
222 1 0.402357 0.378222 0.323792
223 1 0.398517 0.223365 0.403557
224 1 0.394958 0.257071 0.386463
225 1 0.405959 0.442264 0.294847
226 1 0.40962 0.392515 0.335996
227 1 0.406004 0.219508 0.408776
228 1 0.402309 0.25358 0.388194
229 1 0.413167 0.450938 0.297137
230 1 0.417008 0.394023 0.330299
231 1 0.413496 0.231495 0.424351
232 1 0.409711 0.26324 0.397716
233 1 0.420656 0.447744 0.29538
234 1 0.424225 0.389874 0.33197
235 1 0.420801 0.232126 0.420501
236 1 0.417143 0.272673 0.400735
237 1 0.427821 0.445308 0.293784
238 1 0.431622 0.389245 0.325094
239 1 0.427874 0.222804 0.417099
240 1 0.424341 0.264373 0.395742
241 1 0.435225 0.437915 0.281966
242 1 0.438974 0.371509 0.313567
243 1 0.435198 0.223422 0.41528
244 1 0.431574 0.263784 0.401497
245 1 0.442564 0.427132 0.279952
246 1 0.446155 0.371014 0.325466
247 1 0.442128 0.218681 0.423994
248 1 0.438764 0.25551 0.388876
249 1 0.449866 0.428374 0.299728
250 1 0.453538 0.374604 0.341964
251 1 0.449569 0.224934 0.439347
252 1 0.445901 0.256574 0.410838
253 1 0.457331 0.425265 0.303533
254 1 0.460993 0.361633 0.341322
255 1 0.456807 0.211372 0.432925
256 1 0.453122 0.252788 0.415795
257 1 0.464638 0.411598 0.313338
258 1 0.468027 0.34771 0.354612
259 1 0.464071 0.195563 0.447152
260 1 0.46052 0.240965 0.416849
261 1 0.471854 0.390809 0.321309
262 1 0.475381 0.327258 0.364531
263 1 0.471116 0.177879 0.451911
264 1 0.46766 0.226575 0.430801
265 1 0.479117 0.375096 0.336485
266 1 0.482518 0.320494 0.391657
267 1 0.478375 0.17083 0.471733
268 1 0.47487 0.202866 0.435402
269 1 0.486296 0.368673 0.393448
270 1 0.489372 0.323804 0.475905
271 1 0.485327 0.176665 0.507388
272 1 0.481955 0.203427 0.458365
273 1 0.493032 0.370403 0.490235
274 1 0.495511 0.342981 0.587822
275 1 0.490991 0.214125 0.638864
276 1 0.488471 0.216948 0.550604
277 1 0.499122 0.383386 0.601432
278 1 0.501172 0.391598 0.714667
279 1 0.496339 0.276734 0.78832
280 1 0.494255 0.26003 0.688216
281 1 0.50462 0.452216 0.726031
282 1 0.505893 0.51045 0.840626
283 1 0.501422 0.38876 0.922309
284 1 0.499505 0.33723 0.828591
285 1 0.508693 0.61273 0.833936
286 1 0.508202 0.740891 0.897125
287 1 0.503916 0.619904 1.01045
288 1 0.503835 0.487043 0.953361
289 1 0.509462 0.862806 0.832962
290 1 0.506622 0.943695 0.763636
291 1 0.503185 0.855472 0.92725
292 1 0.50502 0.748664 0.979491
293 1 0.506992 0.983112 0.628044
294 1 0.503902 0.954318 0.546194
295 1 0.500387 0.936558 0.721599
296 1 0.502859 0.927125 0.818899
297 1 0.504341 0.91448 0.419256
298 1 0.501473 0.873851 0.334128
299 1 0.497704 0.911732 0.493369
300 1 0.500152 0.93943 0.590785
301 1 0.502079 0.801914 0.21636
302 1 0.499225 0.751585 0.132256
303 1 0.495288 0.839023 0.279366
304 1 0.497588 0.883356 0.370913
305 1 0.499682 0.64696 0.0396457
306 1 0.496615 0.562936 0.0111356
307 1 0.493098 0.718972 0.088854
308 1 0.495348 0.780977 0.167628
309 1 0.497079 0.414671 0.0139678
310 1 0.494175 0.324429 0.0598615
311 1 0.490486 0.503613 -0.000228092
312 1 0.492828 0.605863 0.00780646
313 1 0.494625 0.228846 0.160132
314 1 0.491771 0.16706 0.230502
315 1 0.487885 0.284547 0.101266
316 1 0.49025 0.371643 0.0323763
317 1 0.492186 0.0939012 0.34958
318 1 0.489158 0.0342874 0.423085
319 1 0.4856 0.109892 0.265107
320 1 0.487936 0.185837 0.193847
321 1 0.489353 0.0123775 0.563107
322 1 0.486164 0.0394137 0.647452
323 1 0.48274 -0.000289908 0.469318
324 1 0.485191 0.0296806 0.372517
325 1 0.487072 0.13432 0.755892
326 1 0.486039 0.277664 0.730878
327 1 0.481254 0.167842 0.646232
328 1 0.482239 0.0354403 0.59801
329 1 0.488777 0.378001 0.744142
330 1 0.489781 0.461849 0.641886
331 1 0.484001 0.4069 0.573323
332 1 0.482837 0.294422 0.651355
333 1 0.493363 0.529538 0.630012
334 1 0.495101 0.583104 0.514525
335 1 0.489203 0.571517 0.452309
336 1 0.48718 0.497909 0.5451
337 1 0.499259 0.604828 0.497638
338 1 0.501812 0.603929 0.390815
339 1 0.495653 0.635561 0.316791
340 1 0.492781 0.621836 0.412383
341 1 0.505832 0.60032 0.391008
342 1 0.508666 0.567956 0.291853
343 1 0.503304 0.571374 0.207295
344 1 0.499551 0.619065 0.282343
345 1 0.512952 0.583541 0.299211
346 1 0.51637 0.522681 0.240185
347 1 0.511432 0.417982 0.167247
348 1 0.507562 0.503027 0.182587
349 1 0.520433 0.555343 0.262153
350 1 0.523771 0.492391 0.213854
351 1 0.519173 0.353906 0.124519
352 1 0.515579 0.405899 0.163145
353 1 0.527614 0.54227 0.231119
354 1 0.531055 0.472975 0.190415
355 1 0.526768 0.332148 0.101169
356 1 0.523099 0.374579 0.131515
357 1 0.534934 0.512499 0.230278
358 1 0.538456 0.446932 0.191287
359 1 0.534214 0.304535 0.102968
360 1 0.530518 0.352878 0.116318
361 1 0.542102 0.494786 0.226871
362 1 0.545831 0.431689 0.191344
363 1 0.541816 0.279785 0.0947217
364 1 0.538011 0.328966 0.115746
365 1 0.549627 0.488818 0.222102
366 1 0.553447 0.423728 0.186245
367 1 0.549313 0.269047 0.0966342
368 1 0.545639 0.310987 0.115615
369 1 0.557093 0.481319 0.214266
370 1 0.560709 0.419912 0.184999
371 1 0.556814 0.267924 0.0911037
372 1 0.552986 0.301608 0.107546
373 1 0.564463 0.477348 0.217174
374 1 0.568193 0.41242 0.188332
375 1 0.564044 0.257108 0.0970251
376 1 0.56049 0.298364 0.115191
377 1 0.571883 0.474191 0.215987
378 1 0.575576 0.413744 0.184227
379 1 0.571732 0.251084 0.101215
380 1 0.567798 0.285806 0.121078
381 1 0.579114 0.472089 0.209128
382 1 0.582871 0.420655 0.172797
383 1 0.579068 0.252105 0.0888415
384 1 0.575425 0.286597 0.118195
385 1 0.586525 0.466901 0.209147
386 1 0.590094 0.409737 0.175823
387 1 0.586336 0.255204 0.0800678
388 1 0.582659 0.292078 0.0985575
389 1 0.593942 0.467823 0.209905
390 1 0.597596 0.410577 0.181739
391 1 0.593774 0.257533 0.0832271
392 1 0.590214 0.285946 0.104313
393 1 0.601198 0.460686 0.217207
394 1 0.604864 0.401327 0.191417
395 1 0.601083 0.247627 0.087758
396 1 0.597424 0.290965 0.104303
397 1 0.608569 0.461318 0.214587
398 1 0.612144 0.398042 0.182255
399 1 0.608246 0.236382 0.103122
400 1 0.604632 0.276066 0.118752
401 1 0.6158 0.453318 0.21169
402 1 0.619498 0.391727 0.185247
403 1 0.615796 0.231091 0.0961514
404 1 0.612081 0.27129 0.116422
405 1 0.623191 0.446354 0.217022
406 1 0.626889 0.386581 0.180582
407 1 0.623056 0.226197 0.0993286
408 1 0.619471 0.266341 0.123291
409 1 0.630545 0.441611 0.205752
410 1 0.63411 0.379293 0.178137
411 1 0.630513 0.224473 0.087974
412 1 0.626841 0.261037 0.112138
413 1 0.637835 0.439016 0.211156
414 1 0.641586 0.376784 0.178275
415 1 0.637828 0.212969 0.0978301
416 1 0.634158 0.252081 0.109957
417 1 0.645133 0.437741 0.208776
418 1 0.648895 0.376433 0.176875
419 1 0.645323 0.218496 0.102114
420 1 0.641586 0.249541 0.121528
421 1 0.652469 0.440041 0.205123
422 1 0.65622 0.377383 0.184187
423 1 0.652735 0.20679 0.112097
424 1 0.648976 0.24848 0.121553
425 1 0.659916 0.436118 0.21262
426 1 0.663472 0.372148 0.197997
427 1 0.659983 0.199956 0.118206
428 1 0.656413 0.243843 0.132972
429 1 0.667408 0.42726 0.217708
430 1 0.670856 0.370067 0.18748
431 1 0.667236 0.195493 0.123593
432 1 0.663614 0.234902 0.138325
433 1 0.674428 0.43334 0.211591
434 1 0.678142 0.369606 0.186656
435 1 0.674528 0.199956 0.113261
436 1 0.670865 0.232791 0.136869
437 1 0.681948 0.422896 0.211232
438 1 0.685556 0.358398 0.193015
439 1 0.681727 0.195033 0.117933
440 1 0.67816 0.237785 0.133811
441 1 0.689309 0.419119 0.221233
442 1 0.692915 0.352089 0.203174
443 1 0.68912 0.191242 0.118439
444 1 0.68542 0.226956 0.132233
445 1 0.696472 0.41643 0.225117
446 1 0.700265 0.356283 0.195362
447 1 0.696535 0.180753 0.125465
448 1 0.692933 0.220886 0.142593
449 1 0.703899 0.419193 0.214353
450 1 0.707627 0.358993 0.1884
451 1 0.703778 0.1845 0.119045
452 1 0.700111 0.221847 0.141311
453 1 0.711263 0.42327 0.20662
454 1 0.714854 0.363913 0.182118
455 1 0.71116 0.190294 0.122605
456 1 0.707402 0.228245 0.133127
457 1 0.718372 0.427748 0.200559
458 1 0.72204 0.362998 0.179145
459 1 0.718431 0.186177 0.119441
460 1 0.71482 0.222025 0.141325
461 1 0.725761 0.42785 0.195151
462 1 0.729519 0.365 0.183328
463 1 0.725888 0.180611 0.124791
464 1 0.722133 0.227044 0.138331
465 1 0.733372 0.428523 0.206884
466 1 0.737007 0.360689 0.193919
467 1 0.733407 0.182356 0.137415
468 1 0.729617 0.222043 0.137115
469 1 0.740686 0.425791 0.213971
470 1 0.744417 0.358006 0.194283
471 1 0.740576 0.173375 0.142817
472 1 0.736953 0.223403 0.15092
473 1 0.748065 0.422001 0.217477
474 1 0.75192 0.357541 0.201666
475 1 0.748045 0.172262 0.136767
476 1 0.744388 0.21657 0.156371
477 1 0.755577 0.423144 0.224487
478 1 0.759107 0.359132 0.200936
479 1 0.7554 0.184567 0.134689
480 1 0.75165 0.216512 0.152313
481 1 0.762769 0.418173 0.216639
482 1 0.766469 0.354578 0.19595
483 1 0.762779 0.186917 0.141082
484 1 0.759 0.223578 0.147838
485 1 0.770132 0.418965 0.208897
486 1 0.773852 0.357139 0.196205
487 1 0.770071 0.176722 0.146307
488 1 0.76637 0.219482 0.154742
489 1 0.777445 0.416167 0.21383
490 1 0.781112 0.355353 0.198336
491 1 0.777408 0.166415 0.170384
492 1 0.773751 0.213188 0.166017
493 1 0.784989 0.413492 0.215456
494 1 0.788509 0.34675 0.200934
495 1 0.784712 0.17102 0.165219
496 1 0.781015 0.21174 0.170135
497 1 0.792013 0.420223 0.215704
498 1 0.795702 0.3533 0.199296
499 1 0.792088 0.165401 0.154467
500 1 0.788472 0.207986 0.174526
501 1 0.79925 0.411539 0.210423
502 1 0.802987 0.349516 0.193738
503 1 0.799531 0.171153 0.14961
504 1 0.795751 0.213474 0.16614
505 1 0.806681 0.411641 0.214985
506 1 0.810287 0.344764 0.203059
507 1 0.806712 0.16184 0.152643
508 1 0.803075 0.209165 0.155717
509 1 0.813846 0.413104 0.221259
510 1 0.817472 0.344175 0.211907
511 1 0.813901 0.159554 0.16925
512 1 0.810254 0.204288 0.168082
513 1 0.82116 0.411536 0.234545
514 1 0.824812 0.347545 0.218983
515 1 0.821332 0.162689 0.167861
516 1 0.817633 0.200851 0.180823
517 1 0.828466 0.421669 0.230677
518 1 0.832132 0.358077 0.200325
519 1 0.828473 0.169213 0.172303
520 1 0.824948 0.206747 0.184348
521 1 0.835763 0.434788 0.211343
522 1 0.839555 0.370196 0.204483
523 1 0.835904 0.176349 0.175052
524 1 0.832155 0.21458 0.177085
525 1 0.843155 0.43468 0.223905
526 1 0.846956 0.375357 0.212638
527 1 0.843159 0.190345 0.166183
528 1 0.83948 0.228556 0.181104
529 1 0.850641 0.439774 0.224865
530 1 0.854192 0.371566 0.214896
531 1 0.850551 0.191289 0.172508
532 1 0.846905 0.232421 0.179567
533 1 0.857809 0.439061 0.223809
534 1 0.861672 0.3684 0.215788
535 1 0.857805 0.191802 0.183845
536 1 0.854237 0.231272 0.184109
537 1 0.865221 0.428373 0.222317
538 1 0.868871 0.358316 0.224128
539 1 0.864994 0.180714 0.19752
540 1 0.86145 0.227385 0.199732
541 1 0.872481 0.424046 0.229461
542 1 0.876159 0.350759 0.214485
543 1 0.872495 0.169578 0.198516
544 1 0.868798 0.21156 0.205379
545 1 0.879963 0.416149 0.222463
546 1 0.883621 0.349475 0.217119
547 1 0.87979 0.169081 0.194927
548 1 0.876127 0.204596 0.200461
549 1 0.887266 0.413617 0.235306
550 1 0.890856 0.344332 0.224485
551 1 0.887041 0.157877 0.196171
552 1 0.883416 0.206687 0.197985
553 1 0.894548 0.410772 0.221551
554 1 0.898021 0.340489 0.213547
555 1 0.894204 0.158232 0.20138
556 1 0.890545 0.197475 0.203877
557 1 0.901702 0.402255 0.234376
558 1 0.905313 0.329601 0.235391
559 1 0.901575 0.147496 0.207484
560 1 0.897988 0.193722 0.201891
561 1 0.909063 0.395864 0.242093
562 1 0.912667 0.333693 0.23126
563 1 0.90907 0.138516 0.217639
564 1 0.905345 0.181341 0.222572
565 1 0.916108 0.397838 0.233802
566 1 0.919951 0.337718 0.23711
567 1 0.916474 0.145567 0.224149
568 1 0.912689 0.18343 0.226004
569 1 0.923569 0.402971 0.234707
570 1 0.92732 0.344439 0.226138
571 1 0.923705 0.154792 0.221976
572 1 0.920015 0.194742 0.231087
573 1 0.931084 0.409539 0.236852
574 1 0.934752 0.34459 0.228791
575 1 0.931011 0.150599 0.214512
576 1 0.92744 0.198778 0.220342
577 1 0.938448 0.408212 0.236994
578 1 0.941967 0.338891 0.238254
579 1 0.938559 0.153423 0.208501
580 1 0.934765 0.198654 0.213009
581 1 0.945767 0.402954 0.240077
582 1 0.949332 0.33859 0.218355
583 1 0.945831 0.146839 0.223497
584 1 0.942179 0.192904 0.225868
585 1 0.953075 0.406549 0.218973
586 1 0.956703 0.337973 0.21953
587 1 0.953128 0.147155 0.212908
588 1 0.949449 0.189919 0.216395
589 1 0.960262 0.412315 0.218916
590 1 0.964079 0.346296 0.221278
591 1 0.960362 0.150044 0.217088
592 1 0.956737 0.192236 0.215451
593 1 0.967652 0.416384 0.215258
594 1 0.971339 0.344949 0.220579
595 1 0.967766 0.160676 0.22042
596 1 0.963966 0.192865 0.216984
597 1 0.975025 0.415481 0.221352
598 1 0.978676 0.344038 0.227467
599 1 0.975064 0.157957 0.232722
600 1 0.971503 0.197931 0.222979
601 1 0.982319 0.413791 0.225431
602 1 0.98606 0.349299 0.22897
603 1 0.982525 0.159371 0.231016
604 1 0.978737 0.203455 0.235851
605 1 0.989672 0.415735 0.230466
606 1 0.993263 0.34778 0.231671
607 1 0.989744 0.164782 0.230921
608 1 0.986111 0.204816 0.229343
609 1 0.01043 0.800621 0.228996
610 1 0.0140643 0.760662 0.2258
611 1 0.0105041 0.549697 0.230053
612 1 0.00691188 0.617595 0.231733
613 1 0.0176798 0.805778 0.230775
614 1 0.0214443 0.765228 0.227714
615 1 0.0177473 0.547916 0.225557
616 1 0.0141147 0.616182 0.227202
617 1 0.0250627 0.805051 0.22727
618 1 0.0286766 0.763234 0.222786
619 1 0.0250003 0.552217 0.225487
620 1 0.0213038 0.617753 0.225884
621 1 0.0323502 0.808187 0.228974
622 1 0.0360786 0.768925 0.221452
623 1 0.0324093 0.55076 0.211156
624 1 0.0286152 0.616358 0.213575
625 1 0.039793 0.810575 0.206062
626 1 0.0432531 0.760558 0.202507
627 1 0.0397345 0.552174 0.214971
628 1 0.0360759 0.625803 0.212317
629 1 0.0469137 0.807047 0.193929
630 1 0.050732 0.774049 0.19404
631 1 0.0471233 0.553406 0.209555
632 1 0.043407 0.615313 0.207292
633 1 0.0544302 0.810107 0.18246
634 1 0.0580597 0.770045 0.183432
635 1 0.0542996 0.557741 0.216
636 1 0.0507316 0.620524 0.205787
637 1 0.0617789 0.814292 0.171634
638 1 0.0654682 0.769802 0.185046
639 1 0.0618461 0.558291 0.223702
640 1 0.0582068 0.621798 0.211462
641 1 0.0691191 0.809988 0.181021
642 1 0.0727364 0.771929 0.184114
643 1 0.0689884 0.560476 0.220062
644 1 0.0653536 0.627232 0.205535
645 1 0.0763647 0.817778 0.182389
646 1 0.0800058 0.777846 0.189524
647 1 0.076142 0.562098 0.227628
648 1 0.072705 0.630788 0.213422
649 1 0.0836631 0.822199 0.185835
650 1 0.0873368 0.780503 0.187694
651 1 0.0836968 0.564376 0.223964
652 1 0.0799659 0.631121 0.214044
653 1 0.0910975 0.819602 0.182115
654 1 0.0946926 0.774732 0.177049
655 1 0.0909317 0.56571 0.219582
656 1 0.0872511 0.632062 0.207671
657 1 0.0983903 0.814706 0.17438
658 1 0.1021 0.777144 0.172782
659 1 0.0982175 0.567895 0.220585
660 1 0.0946572 0.634908 0.205146
661 1 0.105735 0.818064 0.161006
662 1 0.109245 0.774559 0.163027
663 1 0.105553 0.564532 0.204462
664 1 0.101917 0.634613 0.199992
665 1 0.113023 0.812091 0.158043
666 1 0.116728 0.77139 0.168412
667 1 0.112982 0.563827 0.203138
668 1 0.109202 0.627333 0.185476
669 1 0.120399 0.814303 0.170222
670 1 0.124039 0.777296 0.186422
671 1 0.120307 0.564739 0.21565
672 1 0.116686 0.62896 0.200214
673 1 0.127734 0.816625 0.185862
674 1 0.131285 0.771894 0.187642
675 1 0.127678 0.567076 0.228097
676 1 0.12393 0.634424 0.208182
677 1 0.135021 0.80834 0.171635
678 1 0.138687 0.766534 0.185687
679 1 0.134923 0.559966 0.221182
680 1 0.131304 0.628913 0.215567
681 1 0.142413 0.808214 0.179698
682 1 0.14609 0.769906 0.192542
683 1 0.142392 0.565614 0.232411
684 1 0.138643 0.62404 0.216338
685 1 0.149674 0.814599 0.190236
686 1 0.153349 0.775791 0.19152
687 1 0.149721 0.565528 0.242409
688 1 0.145988 0.632536 0.226809
689 1 0.157145 0.809001 0.172028
690 1 0.160921 0.775947 0.188597
691 1 0.157161 0.56966 0.23705
692 1 0.153445 0.634307 0.228234
693 1 0.16449 0.817699 0.175132
694 1 0.168178 0.77207 0.182006
695 1 0.164342 0.570991 0.233657
696 1 0.160802 0.636126 0.221287
697 1 0.17185 0.817134 0.163731
698 1 0.175576 0.783529 0.18481
699 1 0.171838 0.572484 0.233721
700 1 0.168135 0.637275 0.221211
701 1 0.179359 0.818772 0.180224
702 1 0.183028 0.773629 0.185337
703 1 0.179169 0.56939 0.249998
704 1 0.175685 0.643218 0.230238
705 1 0.186703 0.814673 0.171797
706 1 0.190419 0.772538 0.176238
707 1 0.186478 0.562758 0.238804
708 1 0.182972 0.636292 0.234098
709 1 0.194038 0.816125 0.176848
710 1 0.197619 0.772311 0.192628
711 1 0.193875 0.553537 0.228358
712 1 0.190266 0.625783 0.211518
713 1 0.201257 0.81165 0.194062
714 1 0.204782 0.773713 0.202958
715 1 0.201399 0.557987 0.233282
716 1 0.197686 0.621017 0.219711
717 1 0.208374 0.817425 0.187261
718 1 0.211955 0.774773 0.191244
719 1 0.208478 0.556385 0.219526
720 1 0.204931 0.623619 0.213915
721 1 0.215538 0.817119 0.184485
722 1 0.21919 0.76849 0.18081
723 1 0.215513 0.563352 0.220135
724 1 0.212016 0.62801 0.205626
725 1 0.222766 0.808202 0.160676
726 1 0.226623 0.76816 0.162427
727 1 0.223193 0.564299 0.220379
728 1 0.219214 0.629924 0.213306
729 1 0.230294 0.807527 0.151952
730 1 0.233939 0.772419 0.159526
731 1 0.230336 0.562033 0.210467
732 1 0.226638 0.627849 0.194773
733 1 0.237566 0.811438 0.137116
734 1 0.241194 0.760324 0.144842
735 1 0.237706 0.565262 0.21521
736 1 0.234008 0.630805 0.194219
737 1 0.244906 0.803072 0.128676
738 1 0.248638 0.759852 0.148693
739 1 0.245082 0.567113 0.217046
740 1 0.241397 0.627657 0.194248
741 1 0.252403 0.803132 0.134772
742 1 0.256037 0.756544 0.151648
743 1 0.252398 0.554149 0.210977
744 1 0.248907 0.623273 0.189125
745 1 0.25968 0.803156 0.141993
746 1 0.263311 0.763756 0.165537
747 1 0.259679 0.559807 0.216528
748 1 0.255923 0.621135 0.191953
749 1 0.266869 0.816568 0.155046
750 1 0.270621 0.780062 0.166771
751 1 0.267115 0.566892 0.219511
752 1 0.263438 0.621879 0.198079
753 1 0.274412 0.816714 0.159349
754 1 0.278075 0.775237 0.167633
755 1 0.274222 0.573638 0.225841
756 1 0.270675 0.639208 0.209945
757 1 0.281875 0.810267 0.147205
758 1 0.285457 0.765372 0.156676
759 1 0.281836 0.567558 0.223634
760 1 0.278029 0.635837 0.207341
761 1 0.289152 0.801444 0.140672
762 1 0.292679 0.757136 0.14879
763 1 0.289106 0.559623 0.223558
764 1 0.285481 0.629891 0.203154
765 1 0.29636 0.797737 0.130809
766 1 0.300018 0.758835 0.144206
767 1 0.296439 0.557918 0.214914
768 1 0.2927 0.621633 0.200232
769 1 0.303575 0.796599 0.126232
770 1 0.307348 0.756144 0.133375
771 1 0.3036 0.559063 0.206366
772 1 0.299934 0.621671 0.189587
773 1 0.31082 0.799437 0.112491
774 1 0.314569 0.761854 0.124172
775 1 0.310889 0.560646 0.202455
776 1 0.307163 0.620695 0.177383
777 1 0.318157 0.807906 0.118033
778 1 0.321855 0.762496 0.118277
779 1 0.318141 0.564442 0.201815
780 1 0.314486 0.625722 0.174651
781 1 0.325561 0.797744 0.105521
782 1 0.329138 0.753401 0.122599
783 1 0.325453 0.558384 0.19702
784 1 0.321865 0.625225 0.173737
785 1 0.332855 0.788894 0.103932
786 1 0.336496 0.745435 0.125954
787 1 0.332872 0.555663 0.208051
788 1 0.32911 0.617695 0.179695
789 1 0.340028 0.791805 0.115332
790 1 0.343759 0.750796 0.134764
791 1 0.340097 0.556396 0.209708
792 1 0.336461 0.615685 0.179238
793 1 0.347368 0.778137 0.107977
794 1 0.35104 0.741482 0.114284
795 1 0.347504 0.560183 0.218803
796 1 0.343868 0.619974 0.19104
797 1 0.354675 0.772086 0.0924396
798 1 0.358362 0.738817 0.105567
799 1 0.354866 0.555005 0.206157
800 1 0.351127 0.613158 0.177858
801 1 0.361982 0.778988 0.0820585
802 1 0.365665 0.743156 0.107374
803 1 0.362164 0.558101 0.209462
804 1 0.358565 0.616457 0.179399
805 1 0.369291 0.779882 0.0829939
806 1 0.372952 0.748008 0.0973749
807 1 0.369463 0.557514 0.20407
808 1 0.365752 0.61518 0.174871
809 1 0.376698 0.785502 0.0891792
810 1 0.380406 0.74709 0.11213
811 1 0.376624 0.563714 0.202892
812 1 0.372981 0.614817 0.169869
813 1 0.383847 0.785357 0.0811397
814 1 0.387381 0.742365 0.103401
815 1 0.383748 0.562323 0.212046
816 1 0.380249 0.62127 0.175513
817 1 0.391151 0.772406 0.0859878
818 1 0.394788 0.734128 0.105501
819 1 0.391281 0.562261 0.210487
820 1 0.387433 0.618504 0.174113
821 1 0.398558 0.775214 0.0826604
822 1 0.402178 0.736767 0.0993586
823 1 0.398681 0.559378 0.210643
824 1 0.394964 0.611445 0.174205
825 1 0.406039 0.767093 0.0706294
826 1 0.40963 0.7225 0.0825659
827 1 0.405945 0.558521 0.214026
828 1 0.402391 0.614555 0.174707
829 1 0.413267 0.754495 0.0577224
830 1 0.416902 0.727245 0.088555
831 1 0.413323 0.56268 0.212316
832 1 0.409585 0.615422 0.171046
833 1 0.42068 0.764179 0.0664371
834 1 0.42429 0.720939 0.0800249
835 1 0.420734 0.558107 0.212968
836 1 0.417188 0.609287 0.17492
837 1 0.428003 0.75256 0.0494562
838 1 0.431646 0.717908 0.0807707
839 1 0.427871 0.554563 0.210843
840 1 0.424362 0.614957 0.170605
841 1 0.435332 0.753993 0.0563
842 1 0.439107 0.720651 0.0855619
843 1 0.435333 0.550791 0.20318
844 1 0.431596 0.604889 0.166354
845 1 0.442892 0.754378 0.0711426
846 1 0.446567 0.715953 0.0916851
847 1 0.44278 0.544153 0.200728
848 1 0.438927 0.598927 0.164895
849 1 0.450322 0.743878 0.0749718
850 1 0.454118 0.707797 0.0973453
851 1 0.450134 0.545849 0.21698
852 1 0.446507 0.599803 0.173873
853 1 0.458066 0.737904 0.0824103
854 1 0.461695 0.692032 0.107796
855 1 0.45747 0.535053 0.220168
856 1 0.453914 0.59467 0.183202
857 1 0.465561 0.71754 0.0815956
858 1 0.469303 0.675117 0.11266
859 1 0.46488 0.519357 0.224164
860 1 0.461461 0.577022 0.186922
861 1 0.473094 0.702209 0.0982338
862 1 0.476874 0.663441 0.121964
863 1 0.472288 0.504347 0.238941
864 1 0.468863 0.559267 0.192717
865 1 0.480836 0.679845 0.111412
866 1 0.484472 0.629955 0.157174
867 1 0.479627 0.486813 0.262207
868 1 0.476032 0.552601 0.21
869 1 0.488669 0.612768 0.157667
870 1 0.492277 0.543819 0.187839
871 1 0.487204 0.457535 0.30382
872 1 0.483645 0.523181 0.245824
873 1 0.49635 0.474006 0.200461
874 1 0.499964 0.416117 0.260425
875 1 0.49418 0.424121 0.381078
876 1 0.491308 0.469416 0.292861
877 1 0.503998 0.390343 0.296201
878 1 0.507083 0.397637 0.387745
879 1 0.501047 0.409474 0.488901
880 1 0.498519 0.425265 0.385528
881 1 0.510886 0.444255 0.426573
882 1 0.513135 0.50079 0.525744
883 1 0.506889 0.456023 0.617877
884 1 0.505094 0.415335 0.497909
885 1 0.516043 0.590772 0.5716
886 1 0.516937 0.697064 0.648153
887 1 0.511345 0.615031 0.739047
888 1 0.510539 0.515978 0.632437
889 1 0.518888 0.828107 0.661242
890 1 0.517805 0.967716 0.626973
891 1 0.512892 0.864878 0.767305
892 1 0.513892 0.724635 0.729987
893 1 0.517357 1.01366 0.502165
894 1 0.514977 0.983063 0.397473
895 1 0.510674 0.991393 0.575024
896 1 0.513801 0.962784 0.67543
897 1 0.514825 0.897981 0.2966
898 1 0.512564 0.824671 0.222836
899 1 0.508107 0.917489 0.370673
900 1 0.511196 0.977155 0.441143
901 1 0.512649 0.722605 0.130899
902 1 0.510398 0.647896 0.0557043
903 1 0.505945 0.777333 0.182173
904 1 0.508637 0.842417 0.25519
905 1 0.510115 0.522588 0.00553936
906 1 0.507711 0.417255 0.00767998
907 1 0.503395 0.60125 0.0184528
908 1 0.506507 0.681172 0.0838114
909 1 0.507194 0.314056 0.0815933
910 1 0.505019 0.244095 0.158815