ITEM: TIMESTEP
184000
ITEM: NUMBER OF ATOMS
1216
ITEM: BOX BOUNDS ss ss ss
-0.0318707 367.119
-1.23001 9.03741
1.84283 12.9263
ITEM: ATOMS id type xs ys zs
1 1 0.00347122 0.426302 0.247088
2 1 0.00678786 0.355674 0.247073
3 1 0.00343043 0.150494 0.247088
4 1 9.81979e-05 0.21728 0.247081
5 1 0.00345555 0.840462 0.247092
6 1 0.00678393 0.771858 0.247047
7 1 0.00341034 0.564046 0.247083
8 1 9.97794e-05 0.632969 0.247083
9 1 0.0105602 0.419674 0.245913
10 1 0.0142035 0.352255 0.245229
11 1 0.0106691 0.164263 0.247429
12 1 0.00703808 0.203933 0.24734
13 1 0.0180261 0.415532 0.247088
14 1 0.0216225 0.354651 0.249384
15 1 0.0179352 0.167587 0.254503
16 1 0.0142764 0.207622 0.246877
17 1 0.0251832 0.426587 0.248877
18 1 0.029016 0.35042 0.255963
19 1 0.025215 0.163562 0.255963
20 1 0.0215684 0.21195 0.25788
21 1 0.0326542 0.420225 0.260464
22 1 0.0363199 0.35728 0.263914
23 1 0.032554 0.162028 0.259117
24 1 0.0288239 0.209623 0.256978
25 1 0.0398773 0.42242 0.261203
26 1 0.0436385 0.361344 0.267156
27 1 0.0399664 0.170504 0.271926
28 1 0.0361948 0.205641 0.267532
29 1 0.0473173 0.423103 0.259457
30 1 0.050878 0.360379 0.264817
31 1 0.0472279 0.174175 0.275134
32 1 0.0435967 0.216035 0.276933
33 1 0.0544169 0.423919 0.264643
34 1 0.0583222 0.361963 0.262459
35 1 0.0545448 0.168056 0.276083
36 1 0.0509149 0.213006 0.274377
37 1 0.0618761 0.428022 0.257493
38 1 0.0655194 0.357102 0.265062
39 1 0.0617546 0.168271 0.274568
40 1 0.0581842 0.214905 0.270587
41 1 0.0692402 0.421996 0.257619
42 1 0.0728443 0.352309 0.269664
43 1 0.0691092 0.166948 0.265196
44 1 0.0653884 0.212582 0.267025
45 1 0.0766238 0.413103 0.26531
46 1 0.0802348 0.346282 0.259188
47 1 0.0764996 0.161817 0.257557
48 1 0.0728626 0.206268 0.265114
49 1 0.0839947 0.41241 0.259855
50 1 0.0876083 0.344886 0.269699
51 1 0.0839458 0.160305 0.26104
52 1 0.080255 0.202451 0.258279
53 1 0.0913137 0.40771 0.271424
54 1 0.0949888 0.338419 0.266935
55 1 0.0912468 0.151683 0.284945
56 1 0.0876974 0.201075 0.27114
57 1 0.098675 0.401387 0.255986
58 1 0.10223 0.329179 0.264094
59 1 0.0985863 0.149659 0.290026
60 1 0.094927 0.192303 0.280744
61 1 0.105945 0.396839 0.245928
62 1 0.109681 0.334452 0.251322
63 1 0.106198 0.146524 0.278665
64 1 0.102384 0.188607 0.277965
65 1 0.11335 0.405193 0.246966
66 1 0.11702 0.334783 0.255879
67 1 0.113311 0.156907 0.275187
68 1 0.109661 0.193298 0.274967
69 1 0.120599 0.406798 0.243178
70 1 0.124241 0.341535 0.245961
71 1 0.120754 0.151603 0.25765
72 1 0.117003 0.192743 0.257996
73 1 0.127946 0.409438 0.244932
74 1 0.131544 0.348879 0.257491
75 1 0.127964 0.157692 0.261292
76 1 0.124177 0.197766 0.250179
77 1 0.135199 0.414614 0.250353
78 1 0.138893 0.348131 0.267201
79 1 0.135236 0.160237 0.282941
80 1 0.131589 0.206077 0.266257
81 1 0.142478 0.414969 0.251665
82 1 0.14624 0.351619 0.263932
83 1 0.142586 0.158603 0.302756
84 1 0.138831 0.203018 0.287001
85 1 0.150067 0.414706 0.257218
86 1 0.153578 0.34636 0.264467
87 1 0.149861 0.168121 0.29706
88 1 0.146208 0.207387 0.296893
89 1 0.157169 0.412935 0.25842
90 1 0.160894 0.348296 0.269786
91 1 0.157152 0.16799 0.284044
92 1 0.153486 0.209626 0.283154
93 1 0.164589 0.4169 0.263314
94 1 0.168258 0.346001 0.277669
95 1 0.164369 0.164365 0.287496
96 1 0.160771 0.208378 0.277936
97 1 0.171852 0.406414 0.254009
98 1 0.175455 0.335829 0.268344
99 1 0.171726 0.15008 0.294994
100 1 0.168136 0.201343 0.296792
101 1 0.179083 0.399584 0.255573
102 1 0.182778 0.336872 0.259544
103 1 0.179082 0.156594 0.290691
104 1 0.175405 0.195724 0.288272
105 1 0.186396 0.401016 0.248579
106 1 0.190101 0.33817 0.265218
107 1 0.18651 0.153111 0.302945
108 1 0.18283 0.191961 0.280061
109 1 0.193771 0.403772 0.24372
110 1 0.197403 0.341239 0.259266
111 1 0.193754 0.155576 0.324423
112 1 0.190007 0.200863 0.305097
113 1 0.201172 0.412211 0.234723
114 1 0.204821 0.354414 0.261505
115 1 0.201146 0.168216 0.308488
116 1 0.197348 0.203941 0.307199
117 1 0.208364 0.415065 0.236912
118 1 0.212033 0.353631 0.259813
119 1 0.208545 0.173234 0.318069
120 1 0.204801 0.210794 0.298234
121 1 0.215788 0.417264 0.238863
122 1 0.219559 0.355263 0.262253
123 1 0.215946 0.175097 0.318596
124 1 0.212204 0.214868 0.309852
125 1 0.223309 0.423639 0.251467
126 1 0.22686 0.367141 0.286603
127 1 0.223143 0.183674 0.336661
128 1 0.219536 0.221432 0.310528
129 1 0.230415 0.430294 0.26411
130 1 0.234133 0.369611 0.286841
131 1 0.230387 0.190353 0.347431
132 1 0.226698 0.231127 0.337031
133 1 0.237705 0.441985 0.268916
134 1 0.241314 0.386826 0.303512
135 1 0.237792 0.203062 0.358953
136 1 0.234162 0.23734 0.337874
137 1 0.244976 0.437767 0.277732
138 1 0.248748 0.378959 0.301364
139 1 0.245025 0.208048 0.372905
140 1 0.241364 0.248154 0.355391
141 1 0.252394 0.439056 0.276686
142 1 0.256139 0.372645 0.293648
143 1 0.252354 0.205543 0.355965
144 1 0.248631 0.24688 0.351795
145 1 0.259791 0.437191 0.271232
146 1 0.263372 0.374787 0.299702
147 1 0.259731 0.195384 0.352039
148 1 0.256174 0.23571 0.339452
149 1 0.267148 0.438801 0.281362
150 1 0.270758 0.371936 0.301486
151 1 0.267072 0.194932 0.3575
152 1 0.263416 0.236026 0.346292
153 1 0.27449 0.426591 0.277283
154 1 0.278137 0.363966 0.297461
155 1 0.274271 0.191784 0.360414
156 1 0.270617 0.238227 0.352249
157 1 0.281748 0.418838 0.275298
158 1 0.285377 0.352952 0.292445
159 1 0.281719 0.195812 0.377717
160 1 0.278133 0.227771 0.349901
161 1 0.28905 0.416543 0.268796
162 1 0.292602 0.350202 0.302777
163 1 0.288948 0.189706 0.38828
164 1 0.285409 0.228192 0.357722
165 1 0.296402 0.411315 0.276495
166 1 0.299897 0.348062 0.30167
167 1 0.296202 0.18034 0.387668
168 1 0.292672 0.219092 0.364987
169 1 0.303767 0.405241 0.276941
170 1 0.307494 0.354685 0.317022
171 1 0.303563 0.193387 0.400035
172 1 0.29994 0.215218 0.368176
173 1 0.311173 0.417423 0.286042
174 1 0.314841 0.360342 0.316471
175 1 0.311075 0.203618 0.410613
176 1 0.307283 0.235086 0.388698
177 1 0.31857 0.418315 0.283936
178 1 0.32207 0.357643 0.316289
179 1 0.318506 0.201589 0.409861
180 1 0.314801 0.239652 0.391207
181 1 0.325843 0.424912 0.291364
182 1 0.329407 0.360485 0.325651
183 1 0.325805 0.195172 0.404252
184 1 0.322142 0.232879 0.38156
185 1 0.333144 0.405726 0.280562
186 1 0.336817 0.357408 0.314135
187 1 0.333072 0.197231 0.408351
188 1 0.329487 0.233666 0.394327
189 1 0.340459 0.410036 0.280536
190 1 0.344012 0.354456 0.314602
191 1 0.340445 0.192227 0.40255
192 1 0.336768 0.226177 0.384071
193 1 0.347646 0.408334 0.290548
194 1 0.351099 0.346821 0.323352
195 1 0.3476 0.191375 0.40827
196 1 0.344013 0.232982 0.386975
197 1 0.354802 0.403783 0.286194
198 1 0.358691 0.343941 0.30989
199 1 0.354888 0.185048 0.40698
200 1 0.351362 0.222555 0.387705
201 1 0.362289 0.406139 0.281122
202 1 0.365743 0.342114 0.316268
203 1 0.362076 0.175475 0.394411
204 1 0.358446 0.21979 0.38079
205 1 0.369472 0.402061 0.291269
206 1 0.373052 0.341952 0.316264
207 1 0.369532 0.168309 0.378736
208 1 0.365773 0.209512 0.370995
209 1 0.376795 0.409404 0.291191
210 1 0.380402 0.343663 0.311279
211 1 0.376871 0.17012 0.38484
212 1 0.373297 0.206957 0.363698
213 1 0.384126 0.404618 0.293357
214 1 0.387827 0.346549 0.320461
215 1 0.384144 0.182103 0.387848
216 1 0.380546 0.212932 0.364598
217 1 0.391481 0.406364 0.302216
218 1 0.395165 0.34887 0.326184
219 1 0.391491 0.182153 0.407694
220 1 0.387887 0.221964 0.377768
221 1 0.39891 0.401009 0.290169
222 1 0.402546 0.345171 0.319371
223 1 0.39895 0.187687 0.415339
224 1 0.39518 0.223964 0.397675
225 1 0.406156 0.400046 0.284089
226 1 0.409867 0.346505 0.319398
227 1 0.406167 0.185946 0.409893
228 1 0.402572 0.223791 0.39186
229 1 0.413509 0.403744 0.292055
230 1 0.417094 0.342675 0.327681
231 1 0.413577 0.182927 0.417634
232 1 0.409892 0.221383 0.394724
233 1 0.420596 0.410213 0.300041
234 1 0.424213 0.357335 0.332795
235 1 0.420663 0.194558 0.425846
236 1 0.417266 0.224262 0.395592
237 1 0.427937 0.412895 0.299394
238 1 0.43163 0.357869 0.346912
239 1 0.427757 0.209326 0.444711
240 1 0.42426 0.240096 0.407345
241 1 0.435153 0.404332 0.306577
242 1 0.438871 0.34813 0.349277
243 1 0.434977 0.20395 0.455996
244 1 0.4314 0.245023 0.430858
245 1 0.442578 0.395718 0.314589
246 1 0.446181 0.338744 0.354182
247 1 0.442105 0.190828 0.449119
248 1 0.438587 0.233323 0.427517
249 1 0.44984 0.383065 0.310846
250 1 0.453541 0.323323 0.346157
251 1 0.449445 0.185152 0.455441
252 1 0.445753 0.220784 0.435124
253 1 0.457241 0.36473 0.307784
254 1 0.460813 0.308897 0.347092
255 1 0.456776 0.174354 0.460674
256 1 0.453082 0.209108 0.43161
257 1 0.464577 0.353588 0.303438
258 1 0.468041 0.291584 0.352202
259 1 0.463934 0.163097 0.464563
260 1 0.460393 0.201403 0.434561
261 1 0.471809 0.347198 0.326023
262 1 0.475152 0.292131 0.384284
263 1 0.471235 0.147371 0.471699
264 1 0.467787 0.183114 0.44168
265 1 0.478973 0.343278 0.370451
266 1 0.482152 0.294913 0.427366
267 1 0.478276 0.150947 0.513784
268 1 0.474893 0.176041 0.464983
269 1 0.486022 0.336144 0.420343
270 1 0.489074 0.301664 0.498481
271 1 0.485223 0.169946 0.565407
272 1 0.481905 0.189135 0.506687
273 1 0.492688 0.34809 0.51339
274 1 0.495248 0.345672 0.613052
275 1 0.491023 0.222544 0.683943
276 1 0.488493 0.216015 0.594328
277 1 0.499035 0.379508 0.616064
278 1 0.501024 0.4074 0.726959
279 1 0.496385 0.315808 0.812664
280 1 0.49409 0.281077 0.72341
281 1 0.504659 0.462187 0.734774
282 1 0.505804 0.551762 0.830899
283 1 0.501234 0.46139 0.936266
284 1 0.499254 0.386517 0.843843
285 1 0.508446 0.660664 0.810658
286 1 0.507888 0.792073 0.85942
287 1 0.503699 0.688219 0.981222
288 1 0.503669 0.564742 0.945908
289 1 0.509164 0.901283 0.780505
290 1 0.506351 0.974181 0.71016
291 1 0.502686 0.905275 0.883024
292 1 0.504551 0.808152 0.944009
293 1 0.506729 0.992451 0.57954
294 1 0.503625 0.954238 0.495581
295 1 0.500033 0.951521 0.661623
296 1 0.502475 0.959254 0.7642
297 1 0.50444 0.898168 0.369757
298 1 0.501352 0.831778 0.294473
299 1 0.497526 0.898137 0.448354
300 1 0.499876 0.936699 0.537449
301 1 0.501973 0.749935 0.182885
302 1 0.499045 0.679733 0.112106
303 1 0.495267 0.795376 0.245667
304 1 0.497482 0.84466 0.333193
305 1 0.499915 0.563861 0.0361565
306 1 0.496707 0.46785 0.0162548
307 1 0.493057 0.637036 0.0693996
308 1 0.495262 0.717822 0.141853
309 1 0.497288 0.329569 0.0408004
310 1 0.49419 0.248955 0.0992148
311 1 0.490519 0.405166 0.0194536
312 1 0.492805 0.514277 0.0133483
313 1 0.494449 0.162461 0.209037
314 1 0.491406 0.111451 0.287211
315 1 0.488007 0.213872 0.150584
316 1 0.490317 0.282922 0.0757006
317 1 0.491882 0.0578858 0.412591
318 1 0.48889 0.0115873 0.495097
319 1 0.485115 0.0642527 0.333178
320 1 0.487486 0.129946 0.249752
321 1 0.489285 0.0149761 0.627334
322 1 0.48601 0.0494394 0.71523
323 1 0.482396 -0.00906494 0.549805
324 1 0.484791 0.00529592 0.446846
325 1 0.486902 0.165664 0.804229
326 1 0.485942 0.303061 0.764921
327 1 0.481033 0.177869 0.695678
328 1 0.482008 0.0434653 0.667058
329 1 0.488657 0.40909 0.758139
330 1 0.489547 0.485123 0.650143
331 1 0.483818 0.404703 0.59349
332 1 0.482697 0.309187 0.685277
333 1 0.493292 0.541216 0.629703
334 1 0.494913 0.566711 0.514188
335 1 0.489064 0.538988 0.449133
336 1 0.486816 0.490722 0.541607
337 1 0.498977 0.578773 0.496282
338 1 0.501372 0.575602 0.385767
339 1 0.495461 0.590117 0.315888
340 1 0.492646 0.581783 0.406331
341 1 0.505405 0.573566 0.378576
342 1 0.508532 0.527623 0.290291
343 1 0.502905 0.516771 0.202931
344 1 0.499448 0.576761 0.275165
345 1 0.512798 0.538729 0.299047
346 1 0.516059 0.471453 0.246552
347 1 0.51093 0.363487 0.196304
348 1 0.506819 0.454841 0.186377
349 1 0.519976 0.502963 0.268453
350 1 0.523256 0.433384 0.231485
351 1 0.518511 0.300376 0.153811
352 1 0.514947 0.355052 0.183117
353 1 0.52729 0.47653 0.251926
354 1 0.530744 0.408802 0.215216
355 1 0.526306 0.270599 0.127113
356 1 0.522573 0.315265 0.159427
357 1 0.534435 0.460821 0.241766
358 1 0.53797 0.395834 0.207934
359 1 0.533897 0.241719 0.12116
360 1 0.530184 0.290263 0.145548
361 1 0.541938 0.44136 0.232322
362 1 0.545573 0.377425 0.193646
363 1 0.541359 0.225885 0.122231
364 1 0.537779 0.266329 0.145972
365 1 0.549231 0.434551 0.219496
366 1 0.552888 0.364264 0.196929
367 1 0.548728 0.207198 0.12229
368 1 0.54512 0.253054 0.13122
369 1 0.556648 0.417634 0.227262
370 1 0.560171 0.344809 0.215325
371 1 0.556047 0.181305 0.133064
372 1 0.552578 0.231759 0.141885
373 1 0.56382 0.399491 0.250178
374 1 0.567405 0.343308 0.226372
375 1 0.563715 0.176389 0.141265
376 1 0.559787 0.210758 0.149217
377 1 0.571248 0.404434 0.245734
378 1 0.574867 0.340133 0.214398
379 1 0.571088 0.176432 0.144514
380 1 0.567479 0.214091 0.164227
381 1 0.578484 0.407935 0.2337
382 1 0.582312 0.348338 0.207701
383 1 0.578491 0.175926 0.137816
384 1 0.574799 0.208487 0.155577
385 1 0.585903 0.408489 0.231417
386 1 0.589303 0.339976 0.20064
387 1 0.585728 0.174354 0.126642
388 1 0.582112 0.213997 0.150753
389 1 0.593038 0.400489 0.227078
390 1 0.596574 0.335786 0.197369
391 1 0.593135 0.166902 0.127147
392 1 0.589482 0.20851 0.146633
393 1 0.600376 0.40237 0.221401
394 1 0.603998 0.343766 0.190647
395 1 0.600428 0.172233 0.115615
396 1 0.596863 0.202807 0.138965
397 1 0.607739 0.402488 0.220663
398 1 0.611316 0.348214 0.180107
399 1 0.60772 0.18086 0.109071
400 1 0.604098 0.212991 0.131182
401 1 0.615047 0.407865 0.20839
402 1 0.618695 0.350255 0.173654
403 1 0.615035 0.180245 0.102551
404 1 0.611343 0.220319 0.115458
405 1 0.622356 0.409218 0.20705
406 1 0.626039 0.356583 0.170372
407 1 0.622203 0.187745 0.0878368
408 1 0.61856 0.219185 0.113072
409 1 0.629754 0.407901 0.205606
410 1 0.63341 0.348942 0.17707
411 1 0.629594 0.178947 0.097757
412 1 0.625872 0.224555 0.104817
413 1 0.637135 0.413361 0.206898
414 1 0.640748 0.359437 0.17374
415 1 0.637034 0.177455 0.114208
416 1 0.63322 0.213257 0.122418
417 1 0.644412 0.416361 0.198878
418 1 0.648014 0.358942 0.168312
419 1 0.644349 0.189816 0.101936
420 1 0.640693 0.222945 0.126833
421 1 0.651787 0.422503 0.198938
422 1 0.655589 0.356738 0.17899
423 1 0.651835 0.18562 0.109701
424 1 0.648154 0.22497 0.119361
425 1 0.659325 0.418577 0.208563
426 1 0.663019 0.353232 0.183464
427 1 0.659049 0.173402 0.129397
428 1 0.65547 0.217774 0.134765
429 1 0.666579 0.413884 0.218841
430 1 0.67005 0.356019 0.193009
431 1 0.666635 0.175673 0.126273
432 1 0.662807 0.214113 0.13653
433 1 0.673586 0.421479 0.211964
434 1 0.677501 0.359518 0.192294
435 1 0.673833 0.190493 0.123784
436 1 0.670159 0.228197 0.14089
437 1 0.681079 0.418697 0.214098
438 1 0.684762 0.358292 0.192316
439 1 0.681206 0.18518 0.120768
440 1 0.677528 0.227477 0.135931
441 1 0.688511 0.417663 0.212768
442 1 0.692246 0.358334 0.191761
443 1 0.68849 0.184877 0.132243
444 1 0.68479 0.221912 0.144968
445 1 0.695764 0.426587 0.212098
446 1 0.699336 0.361886 0.195673
447 1 0.695816 0.185611 0.123172
448 1 0.692147 0.223971 0.139762
449 1 0.703286 0.428272 0.21193
450 1 0.706704 0.358693 0.191238
451 1 0.702998 0.184855 0.137307
452 1 0.699386 0.225225 0.144071
453 1 0.710444 0.417598 0.213841
454 1 0.714163 0.354924 0.187154
455 1 0.710443 0.180402 0.132692
456 1 0.706725 0.221598 0.149844
457 1 0.717828 0.423994 0.205576
458 1 0.721425 0.366295 0.182475
459 1 0.717796 0.182486 0.13579
460 1 0.714048 0.217756 0.139828
461 1 0.725107 0.432097 0.208477
462 1 0.728858 0.369711 0.190627
463 1 0.725118 0.185863 0.132372
464 1 0.721513 0.224551 0.145854
465 1 0.732533 0.431 0.217864
466 1 0.736092 0.365523 0.195822
467 1 0.732377 0.186876 0.138483
468 1 0.728686 0.230277 0.149234
469 1 0.739865 0.425898 0.225221
470 1 0.743392 0.361095 0.200207
471 1 0.739829 0.189088 0.130653
472 1 0.736107 0.227317 0.147947
473 1 0.747122 0.430173 0.224669
474 1 0.75075 0.365589 0.198757
475 1 0.747058 0.186083 0.139824
476 1 0.743386 0.225594 0.150726
477 1 0.754382 0.430767 0.219145
478 1 0.758085 0.359656 0.207759
479 1 0.754345 0.184904 0.145819
480 1 0.750726 0.230326 0.154834
481 1 0.761765 0.419132 0.223987
482 1 0.765417 0.355747 0.209475
483 1 0.761692 0.181127 0.159175
484 1 0.758074 0.223418 0.165026
485 1 0.769082 0.41838 0.223665
486 1 0.772818 0.354987 0.204776
487 1 0.768907 0.182016 0.165308
488 1 0.76526 0.213283 0.17172
489 1 0.776415 0.414717 0.222884
490 1 0.77997 0.345421 0.213206
491 1 0.776318 0.162367 0.178126
492 1 0.77259 0.21777 0.178581
493 1 0.783718 0.414253 0.226397
494 1 0.787526 0.344247 0.22575
495 1 0.783757 0.164339 0.182841
496 1 0.780101 0.204822 0.186809
497 1 0.791107 0.409388 0.237103
498 1 0.794728 0.343648 0.227321
499 1 0.791034 0.164771 0.178019
500 1 0.78736 0.207284 0.189277
501 1 0.798341 0.407846 0.245066
502 1 0.802021 0.342984 0.233869
503 1 0.798434 0.162021 0.188145
504 1 0.794762 0.202961 0.195048
505 1 0.805644 0.412218 0.242445
506 1 0.809318 0.347721 0.233345
507 1 0.805603 0.165859 0.198182
508 1 0.802036 0.206505 0.203549
509 1 0.81296 0.416368 0.247047
510 1 0.816689 0.348386 0.235818
511 1 0.813166 0.162061 0.201571
512 1 0.809407 0.206797 0.207564
513 1 0.820452 0.414514 0.253116
514 1 0.824111 0.345309 0.236673
515 1 0.820391 0.164394 0.201426
516 1 0.81672 0.205677 0.207353
517 1 0.827834 0.411891 0.247473
518 1 0.831638 0.349816 0.23504
519 1 0.827746 0.162983 0.207096
520 1 0.824067 0.200742 0.211957
521 1 0.835286 0.413388 0.238665
522 1 0.838924 0.342514 0.236161
523 1 0.835106 0.162727 0.217721
524 1 0.831465 0.208787 0.216853
525 1 0.842741 0.412638 0.243597
526 1 0.846318 0.346376 0.233668
527 1 0.842511 0.157603 0.207706
528 1 0.838772 0.198385 0.221928
529 1 0.85018 0.414959 0.240782
530 1 0.853726 0.345054 0.229871
531 1 0.849933 0.164222 0.184787
532 1 0.846212 0.20429 0.203167
533 1 0.857345 0.411423 0.239565
534 1 0.861067 0.343119 0.219906
535 1 0.857432 0.155367 0.196236
536 1 0.853707 0.1979 0.204201
537 1 0.864888 0.413623 0.222567
538 1 0.86858 0.344735 0.222369
539 1 0.864786 0.15523 0.195299
540 1 0.861153 0.196666 0.198328
541 1 0.872154 0.416146 0.232666
542 1 0.875795 0.351956 0.229569
543 1 0.872271 0.160851 0.215721
544 1 0.868456 0.198675 0.205808
545 1 0.879361 0.425123 0.237556
546 1 0.882952 0.359895 0.234372
547 1 0.879522 0.161923 0.22705
548 1 0.875919 0.208835 0.221578
549 1 0.886522 0.422347 0.232104
550 1 0.890157 0.354539 0.228448
551 1 0.886489 0.171392 0.22426
552 1 0.883033 0.215993 0.226605
553 1 0.893978 0.419538 0.229273
554 1 0.897666 0.353922 0.217679
555 1 0.894008 0.167615 0.21532
556 1 0.890262 0.212269 0.225516
557 1 0.901385 0.421969 0.230818
558 1 0.904946 0.355994 0.223533
559 1 0.901329 0.1633 0.195303
560 1 0.897728 0.207721 0.203483
561 1 0.908743 0.41845 0.233637
562 1 0.912273 0.355457 0.221145
563 1 0.908537 0.165753 0.201166
564 1 0.904871 0.210718 0.200605
565 1 0.915909 0.420287 0.225069
566 1 0.919553 0.350707 0.223005
567 1 0.915837 0.172368 0.207765
568 1 0.912138 0.207816 0.208669
569 1 0.923229 0.420676 0.225492
570 1 0.926953 0.351836 0.22832
571 1 0.92315 0.170474 0.223373
572 1 0.919545 0.214807 0.212879
573 1 0.930677 0.420161 0.229707
574 1 0.934317 0.350618 0.233693
575 1 0.930616 0.165966 0.239925
576 1 0.926864 0.207558 0.234804
577 1 0.93812 0.416036 0.220747
578 1 0.941679 0.354615 0.222657
579 1 0.938081 0.161456 0.247925
580 1 0.934362 0.2036 0.247952
581 1 0.94527 0.421604 0.219724
582 1 0.948917 0.353288 0.221784
583 1 0.945483 0.171292 0.234678
584 1 0.941744 0.208595 0.235884
585 1 0.952588 0.424252 0.227276
586 1 0.956425 0.358274 0.232853
587 1 0.952767 0.168168 0.227718
588 1 0.949169 0.21089 0.226863
589 1 0.960054 0.424061 0.243892
590 1 0.963794 0.360607 0.245331
591 1 0.959965 0.174318 0.229071
592 1 0.956369 0.214917 0.226862
593 1 0.967503 0.422693 0.249274
594 1 0.971032 0.361552 0.251152
595 1 0.967461 0.171231 0.239066
596 1 0.963664 0.214563 0.230052
597 1 0.97476 0.424455 0.247893
598 1 0.97849 0.357113 0.243949
599 1 0.974783 0.170981 0.242449
600 1 0.971173 0.216562 0.243309
601 1 0.982063 0.421376 0.238754
602 1 0.985844 0.361702 0.244039
603 1 0.982195 0.174425 0.242226
604 1 0.978504 0.210093 0.241293
605 1 0.989477 0.42804 0.245522
606 1 0.99309 0.360185 0.246715
607 1 0.98955 0.177458 0.245972
608 1 0.985895 0.217433 0.244409
609 1 0.0104941 0.812357 0.244065
610 1 0.0141508 0.772457 0.2409
611 1 0.0105688 0.561804 0.245112
612 1 0.0069544 0.629602 0.246777
613 1 0.0177728 0.82257 0.238491
614 1 0.021525 0.778254 0.236556
615 1 0.0179358 0.559567 0.250864
616 1 0.0142015 0.628191 0.242288
617 1 0.0251026 0.822002 0.23488
618 1 0.0288244 0.783174 0.236706
619 1 0.0251542 0.566174 0.256138
620 1 0.0214474 0.631017 0.249863
621 1 0.0324658 0.824424 0.230059
622 1 0.0361386 0.779571 0.227573
623 1 0.0324638 0.566354 0.253921
624 1 0.0287525 0.633602 0.250294
625 1 0.0397447 0.824315 0.235749
626 1 0.043466 0.780597 0.240933
627 1 0.0399101 0.568537 0.244043
628 1 0.0360531 0.633644 0.236568
629 1 0.0471087 0.824412 0.24191
630 1 0.0507805 0.780868 0.244808
631 1 0.0471294 0.564355 0.2507
632 1 0.0435048 0.635907 0.244746
633 1 0.0544165 0.821562 0.232252
634 1 0.0581806 0.783317 0.230071
635 1 0.0544963 0.569061 0.25642
636 1 0.05086 0.638926 0.255203
637 1 0.0619157 0.817219 0.225493
638 1 0.0656449 0.772983 0.22654
639 1 0.0618678 0.56686 0.249411
640 1 0.0582188 0.635581 0.247815
641 1 0.0693054 0.816407 0.219539
642 1 0.0730875 0.773832 0.226478
643 1 0.0691685 0.56521 0.247771
644 1 0.0656143 0.635341 0.245821
645 1 0.0766401 0.810144 0.218398
646 1 0.0802957 0.776536 0.227497
647 1 0.0765718 0.558361 0.259303
648 1 0.0729477 0.626685 0.249992
649 1 0.084074 0.813432 0.231385
650 1 0.087648 0.767613 0.232366
651 1 0.0839397 0.557784 0.252414
652 1 0.0802927 0.627633 0.243582
653 1 0.0914219 0.805729 0.225593
654 1 0.0949377 0.755891 0.234982
655 1 0.0914283 0.548253 0.260946
656 1 0.0877387 0.620049 0.251856
657 1 0.0985913 0.791385 0.215536
658 1 0.102314 0.748261 0.208143
659 1 0.0985363 0.540173 0.240421
660 1 0.0950415 0.61148 0.254075
661 1 0.105815 0.791231 0.184963
662 1 0.109365 0.751366 0.183182
663 1 0.10599 0.535528 0.225827
664 1 0.102136 0.605951 0.226996
665 1 0.113068 0.79528 0.175684
666 1 0.116631 0.756372 0.189474
667 1 0.113241 0.542689 0.225843
668 1 0.109566 0.606633 0.209203
669 1 0.120353 0.801079 0.189858
670 1 0.124152 0.763199 0.194989
671 1 0.12046 0.55049 0.230537
672 1 0.116818 0.616063 0.217765
673 1 0.127733 0.807439 0.192932
674 1 0.131612 0.767976 0.198005
675 1 0.12784 0.55087 0.226398
676 1 0.124074 0.6173 0.214588
677 1 0.135381 0.813811 0.193569
678 1 0.138949 0.762153 0.194304
679 1 0.135108 0.556345 0.230649
680 1 0.131411 0.62239 0.220537
681 1 0.142702 0.802788 0.190321
682 1 0.146348 0.763093 0.201915
683 1 0.142512 0.556182 0.231333
684 1 0.138788 0.621874 0.219273
685 1 0.150033 0.805691 0.197808
686 1 0.15371 0.765964 0.199418
687 1 0.149963 0.553671 0.236076
688 1 0.146326 0.622259 0.226395
689 1 0.157329 0.80833 0.183185
690 1 0.16105 0.762363 0.182318
691 1 0.157346 0.549698 0.232455
692 1 0.153742 0.621996 0.228554
693 1 0.164731 0.80111 0.171795
694 1 0.16814 0.75393 0.187725
695 1 0.164648 0.553975 0.23431
696 1 0.160924 0.618682 0.214502
697 1 0.171792 0.797623 0.186509
698 1 0.175403 0.757826 0.192128
699 1 0.171628 0.54499 0.219247
700 1 0.168229 0.61106 0.212413
701 1 0.179235 0.800071 0.188572
702 1 0.182803 0.760269 0.184161
703 1 0.179147 0.543769 0.226069
704 1 0.175382 0.612165 0.215733
705 1 0.186484 0.798248 0.169136
706 1 0.190004 0.750077 0.177637
707 1 0.186392 0.546063 0.225497
708 1 0.182864 0.612378 0.212605
709 1 0.193712 0.790783 0.157189
710 1 0.197236 0.749206 0.161326
711 1 0.19376 0.541301 0.212212
712 1 0.189976 0.606074 0.20864
713 1 0.201035 0.792563 0.142205
714 1 0.204742 0.757742 0.145436
715 1 0.201152 0.553983 0.20383
716 1 0.197406 0.61391 0.196535
717 1 0.208421 0.804528 0.137172
718 1 0.212139 0.761471 0.145747
719 1 0.20835 0.55384 0.205754
720 1 0.204737 0.617 0.182125
721 1 0.215831 0.801264 0.132444
722 1 0.219457 0.763071 0.146961
723 1 0.215911 0.551217 0.19735
724 1 0.212114 0.61811 0.176878
725 1 0.223135 0.803726 0.138546
726 1 0.226807 0.762048 0.141037
727 1 0.2232 0.560245 0.20873
728 1 0.219584 0.616919 0.184842
729 1 0.230334 0.804051 0.122937
730 1 0.234012 0.765585 0.145725
731 1 0.230486 0.564999 0.214078
732 1 0.226886 0.627584 0.192123
733 1 0.23761 0.805397 0.133176
734 1 0.24144 0.763375 0.13355
735 1 0.237789 0.571816 0.219101
736 1 0.234027 0.627314 0.187833
737 1 0.245081 0.800239 0.121442
738 1 0.24873 0.762662 0.140127
739 1 0.24511 0.574907 0.230706
740 1 0.24141 0.635243 0.199345
741 1 0.252492 0.795169 0.127155
742 1 0.256233 0.761524 0.136896
743 1 0.252417 0.567375 0.223713
744 1 0.248783 0.629445 0.200987
745 1 0.25981 0.801557 0.123788
746 1 0.263595 0.765214 0.135944
747 1 0.259817 0.568666 0.219921
748 1 0.256184 0.627942 0.194334
749 1 0.267258 0.803126 0.129303
750 1 0.270933 0.764297 0.151305
751 1 0.267252 0.566883 0.226547
752 1 0.26354 0.628356 0.192527
753 1 0.274697 0.795927 0.127465
754 1 0.278339 0.751565 0.152696
755 1 0.274562 0.5626 0.229217
756 1 0.270877 0.629896 0.198806
757 1 0.28212 0.78075 0.136682
758 1 0.285854 0.736228 0.137775
759 1 0.281968 0.554695 0.229578
760 1 0.278332 0.618734 0.204541
761 1 0.289483 0.766989 0.113053
762 1 0.293006 0.726883 0.127031
763 1 0.28925 0.544236 0.214179
764 1 0.28562 0.607391 0.198312
765 1 0.296486 0.758458 0.0984529
766 1 0.300061 0.720418 0.118089
767 1 0.29627 0.532572 0.214924
768 1 0.292887 0.600151 0.189459
769 1 0.303595 0.760687 0.0934906
770 1 0.307268 0.719477 0.112413
771 1 0.303616 0.534161 0.213691
772 1 0.299935 0.59089 0.180957
773 1 0.310962 0.74418 0.0808574
774 1 0.314575 0.708473 0.0974574
775 1 0.310946 0.533546 0.208597
776 1 0.307178 0.593129 0.182188
777 1 0.318217 0.752248 0.0839544
778 1 0.321914 0.723459 0.108638
779 1 0.318329 0.539059 0.216897
780 1 0.314668 0.588251 0.17779
781 1 0.325658 0.761551 0.0998057
782 1 0.329374 0.726596 0.114083
783 1 0.325671 0.543805 0.220144
784 1 0.321981 0.59907 0.181587
785 1 0.333123 0.757248 0.104895
786 1 0.336603 0.715893 0.129172
787 1 0.333138 0.536799 0.212469
788 1 0.329391 0.592377 0.177452
789 1 0.340245 0.762824 0.110663
790 1 0.343995 0.725378 0.128353
791 1 0.340341 0.531795 0.212163
792 1 0.336823 0.591037 0.185796
793 1 0.347678 0.761705 0.104924
794 1 0.351404 0.724643 0.124133
795 1 0.347471 0.531759 0.22132
796 1 0.343994 0.59502 0.187584
797 1 0.355016 0.760423 0.104739
798 1 0.358706 0.726589 0.12738
799 1 0.354818 0.531311 0.226062
800 1 0.351182 0.592183 0.191562
801 1 0.362493 0.765265 0.113948
802 1 0.365972 0.719553 0.136024
803 1 0.362294 0.533663 0.227693
804 1 0.358604 0.597663 0.194862
805 1 0.369478 0.760945 0.117985
806 1 0.373121 0.72451 0.139014
807 1 0.369603 0.526839 0.224642
808 1 0.365983 0.58714 0.196323
809 1 0.376909 0.761713 0.125327
810 1 0.380492 0.721348 0.146791
811 1 0.376719 0.529211 0.229037
812 1 0.373173 0.591802 0.199201
813 1 0.38421 0.759026 0.128564
814 1 0.387996 0.71713 0.138766
815 1 0.384234 0.533452 0.234349
816 1 0.380534 0.590621 0.208805
817 1 0.391537 0.757469 0.113139
818 1 0.395208 0.7208 0.135732
819 1 0.39163 0.532485 0.242172
820 1 0.388023 0.59154 0.205667
821 1 0.398731 0.748789 0.102612
822 1 0.402371 0.712677 0.122136
823 1 0.3988 0.527365 0.226963
824 1 0.395203 0.59166 0.206525
825 1 0.406092 0.747027 0.104899
826 1 0.409681 0.70555 0.117126
827 1 0.405998 0.52295 0.216628
828 1 0.402387 0.581381 0.187254
829 1 0.413324 0.737981 0.0901154
830 1 0.417057 0.699854 0.107946
831 1 0.413296 0.530356 0.224346
832 1 0.40972 0.585025 0.192676
833 1 0.420762 0.726678 0.0768771
834 1 0.424426 0.6844 0.0992633
835 1 0.420708 0.526163 0.219954
836 1 0.416922 0.579073 0.185621
837 1 0.428198 0.719788 0.082118
838 1 0.431913 0.683122 0.110506
839 1 0.428088 0.519314 0.221882
840 1 0.424545 0.574677 0.181787
841 1 0.435549 0.707173 0.0774357
842 1 0.439182 0.663611 0.0973184
843 1 0.435246 0.51908 0.22615
844 1 0.431812 0.57175 0.183496
845 1 0.442788 0.693133 0.0624592
846 1 0.446521 0.657374 0.0923821
847 1 0.442711 0.507482 0.230254
848 1 0.439098 0.557112 0.182357
849 1 0.450444 0.684409 0.0688232
850 1 0.454063 0.648939 0.100335
851 1 0.450129 0.495112 0.228146
852 1 0.446465 0.554968 0.185559
853 1 0.457901 0.665648 0.0674453
854 1 0.461622 0.631841 0.101328
855 1 0.457414 0.482449 0.227573
856 1 0.453965 0.536814 0.188323
857 1 0.46543 0.65678 0.0808818
858 1 0.469303 0.627956 0.105208
859 1 0.464923 0.470804 0.23264
860 1 0.461194 0.529106 0.195414
861 1 0.473217 0.644476 0.0859304
862 1 0.476705 0.596028 0.115709
863 1 0.472343 0.455577 0.243364
864 1 0.468915 0.516513 0.196637
865 1 0.480866 0.589567 0.103824
866 1 0.484486 0.543716 0.145548
867 1 0.479472 0.438094 0.277269
868 1 0.476213 0.492299 0.213931
869 1 0.488606 0.541008 0.148288
870 1 0.4923 0.474683 0.197604
871 1 0.48671 0.41474 0.319799
872 1 0.483375 0.468474 0.24885
873 1 0.496371 0.418225 0.210971
874 1 0.499585 0.369682 0.28083
875 1 0.494002 0.384432 0.400106
876 1 0.491036 0.413709 0.309114
877 1 0.503719 0.355607 0.315776
878 1 0.506797 0.370167 0.401789
879 1 0.500877 0.384666 0.503771
880 1 0.498049 0.384482 0.402179
881 1 0.510537 0.422576 0.443925
882 1 0.512735 0.501382 0.528
883 1 0.506807 0.455369 0.627782
884 1 0.505028 0.400633 0.516421
885 1 0.515742 0.597736 0.553092
886 1 0.516902 0.712605 0.625767
887 1 0.51108 0.636739 0.716488
888 1 0.510208 0.530881 0.630029
889 1 0.518487 0.844349 0.613937
890 1 0.517554 0.975467 0.567634
891 1 0.512766 0.884323 0.717814
892 1 0.513766 0.741008 0.702791
893 1 0.517067 1.01012 0.442712
894 1 0.514646 0.971316 0.338918
895 1 0.510492 0.9954 0.521742
896 1 0.513616 0.972066 0.617463
897 1 0.5147 0.879544 0.246753
898 1 0.512631 0.784983 0.179562
899 1 0.50803 0.891982 0.321793
900 1 0.51089 0.965562 0.393871
901 1 0.512597 0.67327 0.106184
902 1 0.510504 0.576229 0.0533573
903 1 0.505895 0.732813 0.153718
904 1 0.508737 0.805602 0.217837
905 1 0.510199 0.445055 0.0203076
906 1 0.507888 0.334125 0.0352767
907 1 0.503697 0.527798 0.015824
908 1 0.506505 0.615944 0.0630256
909 1 0.507254 0.23065 0.118587
910 1 0.505088 0.179937 0.211861
911 1 0.500908 0.29429 0.0667633