ITEM: TIMESTEP
184000
ITEM: NUMBER OF ATOMS
1456
ITEM: BOX BOUNDS ss ss ss
-0.0399323 448.077
9.37715 20.1672
7.71539 18.9766
ITEM: ATOMS id type xs ys zs
1 1 0.00286217 0.277273 0.200286
2 1 0.0055782 0.21001 0.200283
3 1 0.00282679 0.0148166 0.200275
4 1 9.81963e-05 0.0783652 0.20029
5 1 0.00284989 0.671374 0.200276
6 1 0.00557828 0.606048 0.20033
7 1 0.00281258 0.408339 0.200284
8 1 0.000100013 0.473932 0.200284
9 1 0.00866074 0.269185 0.200711
10 1 0.0116079 0.20277 0.200049
11 1 0.00868352 0.0257698 0.19784
12 1 0.00575106 0.0656281 0.199515
13 1 0.0147388 0.265259 0.197519
14 1 0.0176729 0.199327 0.206438
15 1 0.0146604 0.0265046 0.193194
16 1 0.0116273 0.065323 0.197185
17 1 0.0206103 0.267855 0.215021
18 1 0.0235804 0.198856 0.216576
19 1 0.0205874 0.0222447 0.208883
20 1 0.0176407 0.0643649 0.199698
21 1 0.0265721 0.262963 0.214122
22 1 0.0295214 0.193282 0.215727
23 1 0.0263581 0.0182013 0.223952
24 1 0.0236212 0.0656636 0.212749
25 1 0.0325555 0.259127 0.21573
26 1 0.035547 0.196772 0.231948
27 1 0.0325411 0.0139618 0.23832
28 1 0.0295309 0.0548151 0.229047
29 1 0.0385477 0.256561 0.227357
30 1 0.0415121 0.19214 0.228041
31 1 0.038519 0.0192208 0.238193
32 1 0.0355457 0.0599007 0.236699
33 1 0.0444748 0.252992 0.215097
34 1 0.047338 0.19157 0.224574
35 1 0.0445507 0.0150842 0.229762
36 1 0.0416349 0.0558264 0.229008
37 1 0.0503305 0.254267 0.22217
38 1 0.0532836 0.18601 0.224358
39 1 0.0504775 0.0132167 0.234365
40 1 0.0475206 0.0548272 0.231664
41 1 0.0565041 0.252121 0.220112
42 1 0.0593474 0.186703 0.222935
43 1 0.0563929 0.00845564 0.230079
44 1 0.0534523 0.0498738 0.22959
45 1 0.0624695 0.252579 0.219458
46 1 0.0655415 0.189398 0.220683
47 1 0.06259 0.0123447 0.240405
48 1 0.0595438 0.0488878 0.235437
49 1 0.0685728 0.253924 0.216139
50 1 0.0715504 0.190026 0.221909
51 1 0.0684686 0.00755396 0.23259
52 1 0.0654205 0.0515445 0.23159
53 1 0.0744723 0.253765 0.234097
54 1 0.077398 0.19007 0.236189
55 1 0.0745374 0.0129582 0.238705
56 1 0.0714792 0.0500436 0.232713
57 1 0.0805617 0.251108 0.236201
58 1 0.0834224 0.18372 0.239219
59 1 0.0805551 0.00653925 0.246012
60 1 0.0775554 0.0498772 0.245489
61 1 0.0864217 0.245641 0.231261
62 1 0.0893383 0.180082 0.238327
63 1 0.086533 0.00112259 0.249479
64 1 0.0835436 0.0462686 0.246648
65 1 0.0925322 0.247895 0.225797
66 1 0.0955878 0.185376 0.242218
67 1 0.0925972 0.00359849 0.264393
68 1 0.0895363 0.0385144 0.252539
69 1 0.0985565 0.248515 0.230604
70 1 0.101489 0.186047 0.239709
71 1 0.0985695 0.00785771 0.274727
72 1 0.0955409 0.0496368 0.264424
73 1 0.104595 0.250096 0.234433
74 1 0.107598 0.189023 0.246644
75 1 0.104611 0.00581993 0.280388
76 1 0.101553 0.0509392 0.263408
77 1 0.110566 0.253207 0.23456
78 1 0.113582 0.193523 0.239417
79 1 0.110568 0.0141517 0.274463
80 1 0.107594 0.0465704 0.272864
81 1 0.116489 0.257451 0.237574
82 1 0.11956 0.200063 0.256551
83 1 0.11657 0.0179853 0.283584
84 1 0.113598 0.0520938 0.267361
85 1 0.122456 0.264898 0.244667
86 1 0.125327 0.207262 0.268379
87 1 0.122377 0.0312336 0.304373
88 1 0.119358 0.0683144 0.289939
89 1 0.128229 0.267047 0.242583
90 1 0.13134 0.21354 0.262182
91 1 0.128387 0.0390233 0.321367
92 1 0.125311 0.0779467 0.30342
93 1 0.134329 0.273239 0.239602
94 1 0.137363 0.2151 0.2623
95 1 0.134364 0.0467926 0.323217
96 1 0.13142 0.085501 0.31299
97 1 0.140418 0.279912 0.245778
98 1 0.143332 0.221018 0.266604
99 1 0.14031 0.0535605 0.331214
100 1 0.137383 0.0914896 0.316675
101 1 0.146303 0.287925 0.262968
102 1 0.149351 0.229281 0.276574
103 1 0.146267 0.0577111 0.326144
104 1 0.143219 0.0836173 0.311068
105 1 0.152287 0.288741 0.259938
106 1 0.155208 0.225231 0.272076
107 1 0.152245 0.0611476 0.324391
108 1 0.149241 0.100043 0.315016
109 1 0.158225 0.287021 0.252766
110 1 0.161219 0.234152 0.275335
111 1 0.158251 0.0620399 0.337687
112 1 0.15533 0.0960274 0.314147
113 1 0.16425 0.291357 0.256036
114 1 0.167252 0.23529 0.276824
115 1 0.164297 0.0704176 0.344228
116 1 0.161294 0.100117 0.324062
117 1 0.170222 0.29419 0.263155
118 1 0.173347 0.237384 0.293912
119 1 0.170226 0.080312 0.365643
120 1 0.167265 0.109103 0.3359
121 1 0.176311 0.295469 0.259035
122 1 0.179476 0.234522 0.286625
123 1 0.176432 0.0739722 0.357799
124 1 0.173359 0.111695 0.349772
125 1 0.18245 0.292895 0.26
126 1 0.185467 0.240532 0.285105
127 1 0.182445 0.0838177 0.367892
128 1 0.179492 0.110256 0.346685
129 1 0.188431 0.296291 0.265076
130 1 0.19135 0.239061 0.288925
131 1 0.188345 0.0809816 0.366501
132 1 0.185445 0.120278 0.348817
133 1 0.194506 0.29896 0.266559
134 1 0.197511 0.24135 0.289994
135 1 0.194425 0.0781025 0.359024
136 1 0.191358 0.114172 0.346906
137 1 0.200411 0.304036 0.267503
138 1 0.203401 0.247459 0.293406
139 1 0.200373 0.0807286 0.369187
140 1 0.197413 0.119379 0.347729
141 1 0.20639 0.305937 0.267818
142 1 0.209315 0.24888 0.297275
143 1 0.206409 0.0915745 0.369392
144 1 0.203319 0.122953 0.352939
145 1 0.212433 0.308085 0.276106
146 1 0.215506 0.250625 0.29847
147 1 0.212392 0.0908738 0.370094
148 1 0.2094 0.125066 0.353498
149 1 0.218533 0.306539 0.265643
150 1 0.221512 0.24993 0.286851
151 1 0.218516 0.0844533 0.370454
152 1 0.215543 0.124529 0.356797
153 1 0.224501 0.3139 0.262766
154 1 0.227597 0.252908 0.286219
155 1 0.224593 0.0827991 0.364845
156 1 0.221545 0.118773 0.347373
157 1 0.230488 0.313575 0.259321
158 1 0.23348 0.266105 0.296413
159 1 0.230603 0.0979524 0.361565
160 1 0.227477 0.127404 0.343579
161 1 0.236565 0.322016 0.268848
162 1 0.239531 0.261948 0.298323
163 1 0.236398 0.102621 0.363147
164 1 0.233478 0.139718 0.342719
165 1 0.242603 0.314097 0.261919
166 1 0.245578 0.255525 0.28729
167 1 0.242499 0.097667 0.370994
168 1 0.239508 0.135578 0.351998
169 1 0.248675 0.303836 0.255838
170 1 0.25174 0.250907 0.287588
171 1 0.248593 0.0975369 0.368345
172 1 0.245605 0.136574 0.352546
173 1 0.254746 0.306392 0.258171
174 1 0.257732 0.25135 0.286917
175 1 0.254705 0.0974013 0.381093
176 1 0.251662 0.130345 0.353295
177 1 0.260782 0.30775 0.256793
178 1 0.263802 0.259921 0.294564
179 1 0.260849 0.110097 0.386811
180 1 0.257821 0.133151 0.36838
181 1 0.266735 0.316554 0.270596
182 1 0.269846 0.260539 0.308757
183 1 0.266652 0.106924 0.37716
184 1 0.263741 0.140597 0.357928
185 1 0.272688 0.314796 0.276861
186 1 0.275724 0.258883 0.304006
187 1 0.272601 0.106298 0.38839
188 1 0.269614 0.140977 0.37112
189 1 0.278735 0.315012 0.27733
190 1 0.281712 0.265012 0.312173
191 1 0.278768 0.103444 0.386574
192 1 0.275744 0.135753 0.36998
193 1 0.284647 0.32346 0.280228
194 1 0.287688 0.260005 0.3081
195 1 0.28466 0.110848 0.392922
196 1 0.281754 0.146653 0.37441
197 1 0.290663 0.315525 0.273532
198 1 0.293731 0.264131 0.311884
199 1 0.290704 0.115328 0.414834
200 1 0.28776 0.144352 0.379445
201 1 0.296686 0.318395 0.283176
202 1 0.299796 0.274661 0.322543
203 1 0.296701 0.128476 0.418525
204 1 0.293658 0.150703 0.392188
205 1 0.302754 0.325721 0.280337
206 1 0.305837 0.276885 0.312186
207 1 0.302758 0.133857 0.419723
208 1 0.299703 0.163322 0.40025
209 1 0.308765 0.325743 0.27189
210 1 0.311751 0.269774 0.309199
211 1 0.308741 0.13809 0.422072
212 1 0.305789 0.167842 0.394582
213 1 0.314616 0.321577 0.272602
214 1 0.31755 0.274196 0.309546
215 1 0.31477 0.140037 0.422751
216 1 0.311841 0.166681 0.394475
217 1 0.320653 0.316376 0.270868
218 1 0.323575 0.273907 0.316538
219 1 0.320636 0.134471 0.42407
220 1 0.317721 0.166144 0.394956
221 1 0.326619 0.320014 0.275452
222 1 0.329655 0.272617 0.31795
223 1 0.326539 0.13445 0.434148
224 1 0.32364 0.169195 0.405083
225 1 0.332509 0.315238 0.272713
226 1 0.335634 0.272606 0.312317
227 1 0.332619 0.141544 0.4269
228 1 0.329527 0.168805 0.409322
229 1 0.338614 0.32829 0.278343
230 1 0.341564 0.281158 0.320596
231 1 0.338574 0.13928 0.426896
232 1 0.335651 0.166588 0.394437
233 1 0.344624 0.326572 0.277488
234 1 0.347665 0.278572 0.318585
235 1 0.344669 0.146518 0.433312
236 1 0.341657 0.171912 0.406602
237 1 0.35062 0.328602 0.276894
238 1 0.353681 0.280892 0.318571
239 1 0.350663 0.147923 0.436925
240 1 0.347693 0.17572 0.407019
241 1 0.356712 0.332385 0.286831
242 1 0.35972 0.290071 0.330619
243 1 0.356657 0.156787 0.438689
244 1 0.353624 0.177484 0.407712
245 1 0.362738 0.338069 0.299733
246 1 0.365619 0.293522 0.345663
247 1 0.362628 0.154349 0.453581
248 1 0.359686 0.184175 0.417744
249 1 0.368682 0.338179 0.299057
250 1 0.37166 0.289503 0.340037
251 1 0.368533 0.161639 0.463313
252 1 0.365608 0.188651 0.434605
253 1 0.374554 0.338485 0.298514
254 1 0.377559 0.305882 0.349842
255 1 0.374655 0.166942 0.471271
256 1 0.371577 0.187691 0.436318
257 1 0.380519 0.350889 0.30505
258 1 0.38357 0.300043 0.34788
259 1 0.38062 0.17501 0.469594
260 1 0.377634 0.206974 0.441953
261 1 0.386512 0.346637 0.300757
262 1 0.389569 0.312714 0.348513
263 1 0.38656 0.177888 0.472484
264 1 0.383596 0.206663 0.450667
265 1 0.39249 0.358262 0.307198
266 1 0.395408 0.305291 0.349097
267 1 0.392458 0.183777 0.472747
268 1 0.389458 0.213736 0.444878
269 1 0.39854 0.351546 0.303694
270 1 0.401715 0.309089 0.350024
271 1 0.398562 0.193796 0.475998
272 1 0.395516 0.214308 0.450139
273 1 0.404705 0.356269 0.301981
274 1 0.407601 0.313286 0.352375
275 1 0.404656 0.201156 0.485847
276 1 0.401646 0.219482 0.450355
277 1 0.410476 0.355392 0.300723
278 1 0.413491 0.310492 0.344392
279 1 0.410577 0.20586 0.486159
280 1 0.407505 0.228146 0.453164
281 1 0.416594 0.353915 0.296672
282 1 0.419579 0.312339 0.340419
283 1 0.416613 0.205413 0.478212
284 1 0.413599 0.231156 0.449582
285 1 0.422495 0.353774 0.299833
286 1 0.425396 0.30832 0.344966
287 1 0.422459 0.203846 0.484598
288 1 0.419499 0.226579 0.444422
289 1 0.428574 0.343224 0.294373
290 1 0.43142 0.306314 0.347914
291 1 0.428377 0.21553 0.491375
292 1 0.425414 0.235079 0.458062
293 1 0.434464 0.35028 0.305006
294 1 0.437476 0.327664 0.362601
295 1 0.434373 0.21372 0.492925
296 1 0.431449 0.232866 0.457795
297 1 0.440625 0.364209 0.318036
298 1 0.443602 0.317939 0.365328
299 1 0.440489 0.224879 0.51063
300 1 0.437461 0.242629 0.471117
301 1 0.446701 0.342173 0.311212
302 1 0.449667 0.311571 0.364899
303 1 0.44651 0.231248 0.516084
304 1 0.443469 0.251217 0.482053
305 1 0.452704 0.352657 0.319152
306 1 0.455594 0.322647 0.376669
307 1 0.452555 0.234186 0.514919
308 1 0.449552 0.244745 0.482423
309 1 0.458674 0.351314 0.322772
310 1 0.461568 0.310913 0.372633
311 1 0.458489 0.213744 0.514177
312 1 0.455514 0.246651 0.485598
313 1 0.464608 0.345434 0.327482
314 1 0.467396 0.316104 0.390084
315 1 0.464282 0.208476 0.51913
316 1 0.461492 0.235102 0.482691
317 1 0.470452 0.354093 0.349942
318 1 0.473322 0.325835 0.416611
319 1 0.470224 0.212468 0.537632
320 1 0.467328 0.236486 0.498871
321 1 0.476424 0.357281 0.371467
322 1 0.479317 0.311962 0.429266
323 1 0.475906 0.214808 0.55527
324 1 0.473085 0.242246 0.51742
325 1 0.48236 0.341418 0.392083
326 1 0.485179 0.312052 0.451492
327 1 0.481833 0.2021 0.573307
328 1 0.47895 0.22958 0.532977
329 1 0.488225 0.3428 0.433231
330 1 0.490686 0.333974 0.512644
331 1 0.487465 0.219452 0.598758
332 1 0.484769 0.22339 0.548906
333 1 0.493794 0.384012 0.522692
334 1 0.495823 0.389724 0.62213
335 1 0.492269 0.295329 0.708514
336 1 0.490213 0.26809 0.625511
337 1 0.498914 0.433909 0.623163
338 1 0.50053 0.48883 0.721958
339 1 0.496891 0.410277 0.82279
340 1 0.494912 0.357875 0.741071
341 1 0.50345 0.55449 0.713089
342 1 0.504583 0.642734 0.793521
343 1 0.500906 0.564299 0.910631
344 1 0.499433 0.479658 0.842974
345 1 0.506787 0.740162 0.760703
346 1 0.506246 0.882196 0.777722
347 1 0.502899 0.796399 0.920238
348 1 0.502934 0.664488 0.906755
349 1 0.507143 0.952897 0.669573
350 1 0.504587 0.99792 0.585432
351 1 0.501562 0.965581 0.758822
352 1 0.503352 0.905875 0.850177
353 1 0.504961 0.980287 0.452842
354 1 0.502593 0.923305 0.380025
355 1 0.499579 0.952265 0.544656
356 1 0.50149 0.986581 0.638137
357 1 0.502942 0.849869 0.264285
358 1 0.500618 0.772788 0.201792
359 1 0.49759 0.858828 0.352431
360 1 0.499493 0.918689 0.429185
361 1 0.501177 0.674314 0.11664
362 1 0.498879 0.587117 0.0668343
363 1 0.495716 0.718085 0.172052
364 1 0.497411 0.787985 0.241963
365 1 0.499336 0.465768 0.0209314
366 1 0.496835 0.372542 0.0157924
367 1 0.494006 0.537611 0.0428898
368 1 0.495839 0.626093 0.0898726
369 1 0.497171 0.244802 0.0694136
370 1 0.494735 0.186336 0.142887
371 1 0.491825 0.309097 0.0350447
372 1 0.493719 0.410549 0.00598766
373 1 0.495136 0.132714 0.270848
374 1 0.492563 0.106394 0.353532
375 1 0.489544 0.164861 0.203814
376 1 0.491561 0.209101 0.116379
377 1 0.492989 0.0875794 0.482972
378 1 0.490584 0.0641278 0.568794
379 1 0.48752 0.0690652 0.407656
380 1 0.489458 0.108415 0.313685
381 1 0.490927 0.0934132 0.69968
382 1 0.488264 0.146556 0.772612
383 1 0.485506 0.0464288 0.631303
384 1 0.48741 0.0367604 0.531494
385 1 0.48905 0.268104 0.841421
386 1 0.48815 0.385343 0.772464
387 1 0.484332 0.263235 0.731367
388 1 0.485115 0.127736 0.734104
389 1 0.490427 0.479563 0.745626
390 1 0.491318 0.527373 0.620235
391 1 0.486661 0.442049 0.58258
392 1 0.485475 0.37974 0.68269
393 1 0.494209 0.571041 0.590084
394 1 0.495665 0.57236 0.468041
395 1 0.49062 0.543329 0.413371
396 1 0.489053 0.516044 0.526384
397 1 0.498836 0.591288 0.442692
398 1 0.500923 0.551709 0.344472
399 1 0.496235 0.53634 0.267431
400 1 0.493579 0.562482 0.354444
401 1 0.504314 0.549849 0.348593
402 1 0.506661 0.488849 0.275484
403 1 0.502194 0.444589 0.192704
404 1 0.499367 0.511309 0.240352
405 1 0.510013 0.503295 0.281682
406 1 0.512591 0.428376 0.255527
407 1 0.508584 0.311804 0.209591
408 1 0.50544 0.393421 0.194971
409 1 0.515861 0.457107 0.265955
410 1 0.518757 0.376393 0.244238
411 1 0.515021 0.233856 0.193639
412 1 0.511975 0.299505 0.20488
413 1 0.521918 0.427268 0.260927
414 1 0.524792 0.359692 0.247809
415 1 0.521183 0.196566 0.200945
416 1 0.518294 0.247138 0.205749
417 1 0.527941 0.4082 0.25448
418 1 0.530687 0.342314 0.225349
419 1 0.52737 0.18552 0.188788
420 1 0.524357 0.226838 0.210649
421 1 0.534053 0.394008 0.250029
422 1 0.536951 0.329312 0.229214
423 1 0.533646 0.17069 0.17438
424 1 0.530586 0.211488 0.187086
425 1 0.54011 0.384322 0.23527
426 1 0.543104 0.315949 0.218969
427 1 0.539668 0.150774 0.179155
428 1 0.536724 0.197007 0.188585
429 1 0.546164 0.373408 0.236922
430 1 0.549269 0.308327 0.225997
431 1 0.545786 0.141943 0.173191
432 1 0.542843 0.182451 0.186857
433 1 0.552386 0.363633 0.235974
434 1 0.555182 0.294084 0.228344
435 1 0.551979 0.125155 0.186095
436 1 0.548885 0.170025 0.184119
437 1 0.55823 0.352006 0.235542
438 1 0.561216 0.291618 0.219635
439 1 0.558098 0.118868 0.195895
440 1 0.555062 0.158346 0.200357
441 1 0.564278 0.348459 0.233442
442 1 0.567183 0.279501 0.21951
443 1 0.564129 0.106926 0.1892
444 1 0.561109 0.152257 0.195784
445 1 0.570194 0.337392 0.238745
446 1 0.572979 0.27026 0.22663
447 1 0.570225 0.0964415 0.183451
448 1 0.56722 0.142642 0.189525
449 1 0.57613 0.334908 0.239664
450 1 0.579164 0.270551 0.226575
451 1 0.576224 0.0982014 0.178895
452 1 0.573196 0.132836 0.195445
453 1 0.582168 0.331498 0.23525
454 1 0.585135 0.264802 0.226322
455 1 0.582104 0.0949164 0.18351
456 1 0.579226 0.134651 0.197108
457 1 0.588247 0.319908 0.231214
458 1 0.59114 0.253423 0.226608
459 1 0.588259 0.0839578 0.194207
460 1 0.585298 0.128484 0.193374
461 1 0.594176 0.313437 0.238049
462 1 0.597149 0.250435 0.232596
463 1 0.594193 0.0744825 0.197434
464 1 0.591262 0.117461 0.201962
465 1 0.600247 0.312132 0.246011
466 1 0.60328 0.248154 0.243217
467 1 0.600243 0.0791869 0.195656
468 1 0.597233 0.115766 0.205084
469 1 0.606336 0.308803 0.249603
470 1 0.609358 0.245856 0.231355
471 1 0.606189 0.0674055 0.208653
472 1 0.603292 0.115579 0.210981
473 1 0.612393 0.310096 0.237517
474 1 0.615302 0.244096 0.223027
475 1 0.612272 0.0646549 0.201636
476 1 0.609184 0.106618 0.207333
477 1 0.618301 0.298841 0.242737
478 1 0.621165 0.23045 0.243031
479 1 0.618099 0.058813 0.203989
480 1 0.615233 0.106077 0.207564
481 1 0.624194 0.290803 0.254422
482 1 0.627344 0.22962 0.242497
483 1 0.624116 0.0544227 0.216063
484 1 0.621135 0.0943175 0.215724
485 1 0.630364 0.296603 0.251561
486 1 0.633443 0.235991 0.236633
487 1 0.630261 0.0558886 0.209169
488 1 0.627257 0.0947171 0.221515
489 1 0.636346 0.304605 0.246919
490 1 0.6392 0.247618 0.229627
491 1 0.636351 0.0627595 0.21685
492 1 0.633267 0.097781 0.2163
493 1 0.642307 0.309513 0.250254
494 1 0.645429 0.245935 0.24314
495 1 0.642349 0.0666932 0.211877
496 1 0.63932 0.107058 0.21385
497 1 0.648545 0.306811 0.255938
498 1 0.651606 0.241496 0.256338
499 1 0.648513 0.0677326 0.219496
500 1 0.645426 0.106119 0.218646
501 1 0.654469 0.308117 0.264135
502 1 0.657548 0.253278 0.245238
503 1 0.65459 0.0757555 0.212946
504 1 0.651542 0.10929 0.233644
505 1 0.660594 0.307485 0.261181
506 1 0.663523 0.25075 0.233643
507 1 0.660589 0.0759204 0.204593
508 1 0.65759 0.114558 0.216513
509 1 0.666478 0.31456 0.24758
510 1 0.669424 0.252077 0.230243
511 1 0.666471 0.0750661 0.194659
512 1 0.663524 0.115967 0.207247
513 1 0.672342 0.313467 0.238627
514 1 0.675376 0.249438 0.21619
515 1 0.672445 0.0795229 0.18428
516 1 0.669464 0.117994 0.202253
517 1 0.678412 0.315495 0.235579
518 1 0.681347 0.252788 0.222318
519 1 0.678331 0.0786585 0.178604
520 1 0.675477 0.119375 0.188566
521 1 0.684455 0.313236 0.226583
522 1 0.687526 0.254151 0.203104
523 1 0.684467 0.0761684 0.181036
524 1 0.681408 0.114817 0.189682
525 1 0.69062 0.319158 0.220695
526 1 0.693514 0.24961 0.206813
527 1 0.690526 0.0726628 0.175191
528 1 0.687469 0.116681 0.182388
529 1 0.696687 0.305369 0.218094
530 1 0.699654 0.240887 0.207301
531 1 0.696531 0.0727414 0.160853
532 1 0.693552 0.111377 0.178177
533 1 0.70269 0.301887 0.228148
534 1 0.705696 0.23507 0.210522
535 1 0.702583 0.0688945 0.155274
536 1 0.699642 0.110808 0.166152
537 1 0.708772 0.293396 0.224236
538 1 0.711813 0.237827 0.203909
539 1 0.708629 0.062196 0.166006
540 1 0.705539 0.0998209 0.175678
541 1 0.714708 0.298895 0.216597
542 1 0.717599 0.237633 0.197141
543 1 0.714543 0.0619435 0.155064
544 1 0.711674 0.102563 0.173178
545 1 0.720639 0.297371 0.213814
546 1 0.723654 0.234807 0.19362
547 1 0.720514 0.0663959 0.149708
548 1 0.717548 0.105361 0.161335
549 1 0.726745 0.300391 0.20912
550 1 0.729726 0.241827 0.192654
551 1 0.726577 0.0631186 0.145506
552 1 0.723639 0.0979628 0.156994
553 1 0.732684 0.29844 0.207727
554 1 0.735594 0.23106 0.189599
555 1 0.732458 0.0661846 0.132407
556 1 0.729497 0.106649 0.154909
557 1 0.738618 0.288885 0.214442
558 1 0.741736 0.229888 0.209976
559 1 0.738647 0.0610741 0.141374
560 1 0.735595 0.102466 0.145989
561 1 0.74467 0.290576 0.225233
562 1 0.747719 0.222986 0.206431
563 1 0.744584 0.0591805 0.151825
564 1 0.741564 0.100285 0.166169
565 1 0.750713 0.289119 0.224457
566 1 0.753671 0.229201 0.203755
567 1 0.750728 0.0546634 0.160149
568 1 0.747662 0.0934738 0.166512
569 1 0.756721 0.292324 0.215224
570 1 0.759785 0.23417 0.199161
571 1 0.756766 0.0574907 0.163141
572 1 0.753703 0.0964192 0.170059
573 1 0.762902 0.293131 0.214045
574 1 0.765802 0.229666 0.205027
575 1 0.76273 0.0546379 0.160146
576 1 0.759749 0.0989581 0.171729
577 1 0.768916 0.292766 0.218636
578 1 0.771913 0.229256 0.198596
579 1 0.768859 0.0541162 0.165403
580 1 0.765738 0.0942293 0.173589
581 1 0.774823 0.287965 0.218817
582 1 0.777828 0.225748 0.215749
583 1 0.774868 0.0490417 0.184258
584 1 0.771917 0.0918075 0.174809
585 1 0.780859 0.291079 0.225497
586 1 0.783907 0.231941 0.212871
587 1 0.780782 0.0538933 0.19453
588 1 0.777812 0.094445 0.193412
589 1 0.786838 0.295613 0.218011
590 1 0.789983 0.227543 0.215924
591 1 0.786877 0.0485568 0.183313
592 1 0.783893 0.0898233 0.190469
593 1 0.792937 0.29186 0.229004
594 1 0.795895 0.226408 0.222174
595 1 0.793013 0.0453398 0.188876
596 1 0.78993 0.0845381 0.198968
597 1 0.79894 0.289809 0.235909
598 1 0.802036 0.230042 0.214991
599 1 0.799061 0.0524787 0.172446
600 1 0.796099 0.0903881 0.191766
601 1 0.804846 0.296617 0.216268
602 1 0.807829 0.235141 0.195405
603 1 0.8049 0.0525907 0.166983
604 1 0.801867 0.0925022 0.181448
605 1 0.810877 0.294996 0.206593
606 1 0.813857 0.227212 0.202295
607 1 0.810928 0.058488 0.163551
608 1 0.80784 0.093281 0.170403
609 1 0.816828 0.288535 0.222037
610 1 0.819834 0.226472 0.211162
611 1 0.816828 0.0571291 0.167753
612 1 0.813907 0.0936541 0.177746
613 1 0.822831 0.282726 0.216631
614 1 0.825945 0.215804 0.203363
615 1 0.822702 0.0444029 0.172043
616 1 0.819744 0.0902313 0.183041
617 1 0.82887 0.274168 0.216838
618 1 0.831934 0.209018 0.204653
619 1 0.828826 0.0370424 0.173908
620 1 0.82575 0.0797712 0.178562
621 1 0.83491 0.273077 0.217426
622 1 0.837936 0.2134 0.206186
623 1 0.834904 0.0372548 0.174417
624 1 0.831855 0.0755962 0.182228
625 1 0.840946 0.274289 0.222968
626 1 0.843936 0.210702 0.208405
627 1 0.840825 0.0399394 0.173169
628 1 0.83799 0.0808867 0.177844
629 1 0.847133 0.272355 0.227169
630 1 0.850194 0.2084 0.225365
631 1 0.846948 0.03055 0.197572
632 1 0.843928 0.0755657 0.186203
633 1 0.853181 0.274989 0.239439
634 1 0.856052 0.206296 0.231475
635 1 0.853016 0.0306759 0.210525
636 1 0.850036 0.0669431 0.206494
637 1 0.85902 0.268823 0.240843
638 1 0.861968 0.20322 0.236988
639 1 0.859062 0.0242478 0.205053
640 1 0.856082 0.070169 0.211893
641 1 0.865044 0.263446 0.24452
642 1 0.868086 0.198798 0.238107
643 1 0.865142 0.0241617 0.213079
644 1 0.86214 0.0651972 0.214406
645 1 0.871017 0.261263 0.250453
646 1 0.874088 0.195919 0.252839
647 1 0.871136 0.0222179 0.242328
648 1 0.868154 0.0607676 0.23001
649 1 0.877069 0.256879 0.251539
650 1 0.880147 0.192395 0.255432
651 1 0.877055 0.0162497 0.244225
652 1 0.87408 0.0607428 0.247391
653 1 0.883243 0.254104 0.256654
654 1 0.886292 0.190104 0.252002
655 1 0.883145 0.013069 0.234205
656 1 0.880123 0.0523311 0.246127
657 1 0.889223 0.256674 0.254162
658 1 0.892335 0.194987 0.23952
659 1 0.889289 0.016388 0.238949
660 1 0.8862 0.0505733 0.245483
661 1 0.895297 0.263166 0.248516
662 1 0.898304 0.195936 0.244208
663 1 0.895317 0.0187724 0.2323
664 1 0.892341 0.0576155 0.237058
665 1 0.901366 0.261499 0.252342
666 1 0.904325 0.201346 0.243032
667 1 0.901427 0.0210885 0.213782
668 1 0.898368 0.0556263 0.232693
669 1 0.907374 0.262766 0.239535
670 1 0.910419 0.202317 0.229931
671 1 0.907369 0.0261737 0.215282
672 1 0.904319 0.0657507 0.221622
673 1 0.91331 0.269069 0.220729
674 1 0.916427 0.202422 0.218165
675 1 0.913438 0.0272498 0.230502
676 1 0.910353 0.0644553 0.223476
677 1 0.919417 0.264477 0.212571
678 1 0.922389 0.19674 0.216289
679 1 0.91936 0.0177744 0.220298
680 1 0.916559 0.063234 0.227504
681 1 0.925345 0.261852 0.212912
682 1 0.928438 0.191398 0.22472
683 1 0.925298 0.0164502 0.233718
684 1 0.922363 0.0567166 0.222002
685 1 0.931442 0.254388 0.225995
686 1 0.934386 0.18654 0.229866
687 1 0.931312 0.0109245 0.237832
688 1 0.928304 0.0556348 0.23597
689 1 0.937398 0.247073 0.226033
690 1 0.940494 0.185952 0.235229
691 1 0.937329 0.0114194 0.237598
692 1 0.934188 0.0485733 0.230791
693 1 0.943398 0.247315 0.227214
694 1 0.946559 0.182814 0.230934
695 1 0.94352 0.00524291 0.241271
696 1 0.940516 0.0477022 0.235663
697 1 0.949374 0.253607 0.222403
698 1 0.952399 0.189715 0.218019
699 1 0.949552 0.00401634 0.234037
700 1 0.946458 0.0428443 0.241082
701 1 0.955407 0.252683 0.203199
702 1 0.958385 0.193015 0.204429
703 1 0.955589 0.0115769 0.221773
704 1 0.952566 0.0516034 0.227531
705 1 0.961502 0.251377 0.198535
706 1 0.964538 0.193559 0.201581
707 1 0.961498 0.0103911 0.202047
708 1 0.95852 0.0514993 0.20701
709 1 0.967495 0.261959 0.204215
710 1 0.970551 0.203004 0.202464
711 1 0.967556 0.0168162 0.210046
712 1 0.964615 0.0578761 0.206104
713 1 0.973449 0.269903 0.195066
714 1 0.976537 0.207583 0.196024
715 1 0.973443 0.0259201 0.205795
716 1 0.970511 0.0612064 0.207337
717 1 0.979347 0.274578 0.204906
718 1 0.982465 0.20826 0.205047
719 1 0.97937 0.0226018 0.201085
720 1 0.976388 0.0707535 0.200407
721 1 0.985328 0.278684 0.208746
722 1 0.988421 0.212689 0.197449
723 1 0.985533 0.0289398 0.201427
724 1 0.982424 0.0657871 0.202929
725 1 0.99137 0.277504 0.199928
726 1 0.994329 0.213855 0.200572
727 1 0.991459 0.0387319 0.196344
728 1 0.988482 0.0756785 0.193208
729 1 0.0086719 0.6423 0.204076
730 1 0.0116826 0.602686 0.207591
731 1 0.00869152 0.404347 0.201922
732 1 0.00573466 0.470106 0.200433
733 1 0.0146763 0.642862 0.214524
734 1 0.0176421 0.601366 0.223402
735 1 0.0146965 0.401761 0.206666
736 1 0.0116975 0.465238 0.205023
737 1 0.0207494 0.642629 0.223132
738 1 0.0237162 0.597848 0.222012
739 1 0.0207225 0.403181 0.207232
740 1 0.0177018 0.46351 0.213686
741 1 0.0267105 0.633265 0.213771
742 1 0.0298044 0.590345 0.213638
743 1 0.0266003 0.394747 0.210575
744 1 0.0236433 0.465336 0.211814
745 1 0.0327543 0.631615 0.224033
746 1 0.0358808 0.598119 0.22166
747 1 0.0326573 0.394667 0.214974
748 1 0.0297812 0.455107 0.211205
749 1 0.038843 0.631398 0.216223
750 1 0.0417061 0.589842 0.197369
751 1 0.0385691 0.388907 0.213483
752 1 0.0357048 0.457726 0.216484
753 1 0.0446773 0.627561 0.194601
754 1 0.0476852 0.589327 0.200479
755 1 0.044539 0.385172 0.207472
756 1 0.041576 0.452411 0.208148
757 1 0.0506602 0.631047 0.203518
758 1 0.053638 0.587997 0.205328
759 1 0.0505217 0.388046 0.215588
760 1 0.0476286 0.449263 0.206536
761 1 0.0566299 0.628803 0.21035
762 1 0.0596211 0.591327 0.213613
763 1 0.056498 0.387897 0.213512
764 1 0.0535318 0.452953 0.211906
765 1 0.0625835 0.629531 0.212041
766 1 0.06565 0.585992 0.20718
767 1 0.0625988 0.387982 0.223187
768 1 0.0596143 0.455167 0.215119
769 1 0.0685942 0.629112 0.204135
770 1 0.071581 0.592216 0.2081
771 1 0.0686211 0.391436 0.212495
772 1 0.0656301 0.451929 0.216389
773 1 0.0745664 0.631248 0.213431
774 1 0.0775448 0.588091 0.211847
775 1 0.0744838 0.387448 0.224691
776 1 0.071551 0.456074 0.213233
777 1 0.080406 0.628964 0.210496
778 1 0.0834287 0.592095 0.208429
779 1 0.0805667 0.385348 0.225857
780 1 0.0775344 0.449875 0.218518
781 1 0.0866448 0.62205 0.204536
782 1 0.0895137 0.585173 0.193554
783 1 0.0865394 0.380763 0.218855
784 1 0.083536 0.450755 0.213601
785 1 0.09253 0.620472 0.17831
786 1 0.0953962 0.57354 0.183668
787 1 0.0924912 0.379221 0.206023
788 1 0.0896268 0.444026 0.208021
789 1 0.0983295 0.611501 0.166019
790 1 0.101314 0.577494 0.172906
791 1 0.0984463 0.380191 0.211843
792 1 0.0954814 0.440688 0.201383
793 1 0.10437 0.619144 0.165038
794 1 0.107363 0.58143 0.163671
795 1 0.104412 0.380314 0.201953
796 1 0.10148 0.444241 0.199322
797 1 0.110382 0.624343 0.154758
798 1 0.113353 0.583275 0.162322
799 1 0.110524 0.382449 0.203547
800 1 0.10761 0.444343 0.1876
801 1 0.11623 0.626276 0.153892
802 1 0.119216 0.586473 0.162974
803 1 0.116467 0.384544 0.209675
804 1 0.113425 0.446213 0.19438
805 1 0.122248 0.629055 0.143294
806 1 0.125291 0.593235 0.149853
807 1 0.122274 0.395709 0.21121
808 1 0.119394 0.453276 0.197903
809 1 0.128301 0.628845 0.132624
810 1 0.131234 0.591346 0.138923
811 1 0.128287 0.394042 0.19777
812 1 0.125237 0.457287 0.181291
813 1 0.1343 0.634668 0.141947
814 1 0.13728 0.598958 0.149799
815 1 0.134298 0.404864 0.198532
816 1 0.131271 0.459197 0.178209
817 1 0.140281 0.637237 0.136214
818 1 0.143342 0.606474 0.151004
819 1 0.140405 0.410745 0.20682
820 1 0.137372 0.465109 0.186112
821 1 0.146282 0.643531 0.138477
822 1 0.14921 0.604967 0.150231
823 1 0.14629 0.4147 0.213858
824 1 0.143307 0.47618 0.190231
825 1 0.152127 0.640952 0.131842
826 1 0.155161 0.60031 0.138112
827 1 0.152469 0.413014 0.211095
828 1 0.149401 0.471665 0.199008
829 1 0.158236 0.64273 0.127288
830 1 0.161335 0.6045 0.134912
831 1 0.158197 0.415802 0.207041
832 1 0.155357 0.470873 0.182723
833 1 0.164319 0.638075 0.11171
834 1 0.167392 0.600322 0.124086
835 1 0.1643 0.415846 0.211568
836 1 0.16132 0.47562 0.182586
837 1 0.170343 0.642587 0.101899
838 1 0.17336 0.602301 0.124894
839 1 0.170324 0.420122 0.217646
840 1 0.167239 0.479785 0.18547
841 1 0.176392 0.638395 0.114107
842 1 0.179503 0.603497 0.128922
843 1 0.176485 0.424922 0.215927
844 1 0.173359 0.48062 0.192208
845 1 0.182519 0.642756 0.114915
846 1 0.185553 0.612279 0.135621
847 1 0.182465 0.426169 0.213287
848 1 0.179432 0.483827 0.188726
849 1 0.188504 0.645449 0.125957
850 1 0.191402 0.612283 0.142509
851 1 0.18848 0.422604 0.219933
852 1 0.185485 0.485795 0.189571
853 1 0.19439 0.641398 0.121015
854 1 0.197385 0.604129 0.139179
855 1 0.194359 0.422008 0.21609
856 1 0.191523 0.480933 0.196687
857 1 0.200312 0.648844 0.118732
858 1 0.203357 0.610582 0.130194
859 1 0.200343 0.428679 0.216711
860 1 0.197435 0.482729 0.19767
861 1 0.20645 0.647522 0.114551
862 1 0.209391 0.614728 0.125591
863 1 0.206483 0.426305 0.214254
864 1 0.203347 0.485214 0.187493
865 1 0.212355 0.652712 0.105317
866 1 0.215271 0.613795 0.126081
867 1 0.212458 0.43231 0.21317
868 1 0.209452 0.485563 0.178786
869 1 0.21816 0.641813 0.0893257
870 1 0.221181 0.59875 0.0953383
871 1 0.218419 0.428757 0.207824
872 1 0.215396 0.491692 0.187933
873 1 0.224296 0.636683 0.0697013
874 1 0.227362 0.601965 0.0873389
875 1 0.224466 0.429959 0.20342
876 1 0.221381 0.481799 0.171193
877 1 0.230441 0.63631 0.0730787
878 1 0.233386 0.607937 0.0941634
879 1 0.230518 0.43139 0.194441
880 1 0.227394 0.487345 0.165451
881 1 0.236501 0.638331 0.0760046
882 1 0.239531 0.60488 0.0984469
883 1 0.236401 0.436165 0.198082
884 1 0.233431 0.491249 0.164238
885 1 0.242673 0.639047 0.0738818
886 1 0.245608 0.59323 0.0899353
887 1 0.242625 0.425083 0.192369
888 1 0.239581 0.486311 0.166264
889 1 0.248696 0.630197 0.0699446
890 1 0.251669 0.598229 0.0946529
891 1 0.248703 0.421375 0.186384
892 1 0.245718 0.47773 0.157024
893 1 0.254795 0.632237 0.0784822
894 1 0.257819 0.597406 0.096143
895 1 0.254715 0.424439 0.196007
896 1 0.251776 0.476832 0.161355
897 1 0.260751 0.632735 0.077347
898 1 0.263676 0.596052 0.0940446
899 1 0.260718 0.423578 0.197166
900 1 0.257762 0.473785 0.166844
901 1 0.266664 0.630267 0.0745206
902 1 0.269624 0.603907 0.10556
903 1 0.266787 0.433501 0.204477
904 1 0.26368 0.481709 0.165098
905 1 0.272737 0.630675 0.0833476
906 1 0.275748 0.596065 0.105808