ITEM: TIMESTEP
310000
ITEM: NUMBER OF ATOMS
1456
ITEM: BOX BOUNDS ss ss ss
-0.0399323 453.601
7.98168 18.0519
6.81971 18.0187
ITEM: ATOMS id type xs ys zs
1 1 0.00282732 0.435664 0.281378
2 1 0.00551028 0.363593 0.281374
3 1 0.00279237 0.154449 0.281366
4 1 9.70006e-05 0.222539 0.281381
5 1 0.00281519 0.857933 0.281367
6 1 0.00551035 0.787937 0.281422
7 1 0.00277833 0.576097 0.281375
8 1 9.87949e-05 0.646378 0.281375
9 1 0.00855528 0.426998 0.281804
10 1 0.0114666 0.355835 0.281139
11 1 0.00857779 0.166185 0.278917
12 1 0.00568103 0.208892 0.280602
13 1 0.0144949 0.424082 0.287008
14 1 0.0174544 0.351915 0.281846
15 1 0.014512 0.168018 0.279809
16 1 0.0114858 0.208565 0.278259
17 1 0.0205278 0.41976 0.283707
18 1 0.0236676 0.347291 0.279612
19 1 0.0204722 0.165997 0.275944
20 1 0.0175137 0.207566 0.277474
21 1 0.0266163 0.411492 0.288221
22 1 0.029622 0.345678 0.286251
23 1 0.0265063 0.157578 0.260012
24 1 0.0235541 0.199188 0.264453
25 1 0.0326737 0.417285 0.287978
26 1 0.0356553 0.35035 0.289627
27 1 0.0327429 0.15229 0.277835
28 1 0.029628 0.196029 0.271611
29 1 0.0386217 0.416665 0.282439
30 1 0.0416351 0.355434 0.281675
31 1 0.0386243 0.159346 0.277999
32 1 0.0357078 0.204244 0.282038
33 1 0.0448029 0.420032 0.280518
34 1 0.0477739 0.345024 0.274797
35 1 0.0447142 0.160993 0.289237
36 1 0.0416658 0.202749 0.282464
37 1 0.0508488 0.413907 0.271233
38 1 0.0537443 0.344811 0.271754
39 1 0.0507281 0.156208 0.285101
40 1 0.0477585 0.196147 0.292002
41 1 0.0566841 0.41536 0.273003
42 1 0.0596881 0.344552 0.272609
43 1 0.0566692 0.154658 0.276923
44 1 0.0537169 0.199449 0.276701
45 1 0.0626807 0.41333 0.266532
46 1 0.0657271 0.348446 0.275513
47 1 0.0626689 0.159206 0.279702
48 1 0.0596826 0.19739 0.279151
49 1 0.0686516 0.419711 0.272133
50 1 0.0717375 0.348407 0.282339
51 1 0.0687924 0.154456 0.295271
52 1 0.0657339 0.195512 0.2857
53 1 0.0747509 0.418634 0.27756
54 1 0.0777332 0.34803 0.279303
55 1 0.0747616 0.156157 0.287545
56 1 0.0717838 0.203333 0.291758
57 1 0.0807407 0.418987 0.280082
58 1 0.0837796 0.34751 0.275915
59 1 0.0806953 0.161114 0.291483
60 1 0.0777523 0.204323 0.292209
61 1 0.0868063 0.42165 0.273668
62 1 0.0899451 0.35421 0.266206
63 1 0.086805 0.161268 0.28478
64 1 0.0837374 0.197981 0.291266
65 1 0.0930052 0.419343 0.265735
66 1 0.0958865 0.348189 0.266355
67 1 0.092793 0.164485 0.27837
68 1 0.0896826 0.210947 0.273864
69 1 0.0988853 0.421674 0.25521
70 1 0.101904 0.357324 0.262072
71 1 0.0990453 0.161404 0.286555
72 1 0.0959116 0.200384 0.278358
73 1 0.104901 0.421808 0.252256
74 1 0.107948 0.356888 0.268653
75 1 0.105056 0.167997 0.285531
76 1 0.102055 0.205809 0.280887
77 1 0.110839 0.430046 0.260271
78 1 0.113895 0.357729 0.259006
79 1 0.111076 0.168952 0.280237
80 1 0.108046 0.211408 0.275947
81 1 0.116943 0.425926 0.254245
82 1 0.120008 0.363596 0.267361
83 1 0.117201 0.169246 0.272041
84 1 0.114085 0.207971 0.270439
85 1 0.122927 0.43157 0.264163
86 1 0.126014 0.365657 0.288236
87 1 0.123157 0.176291 0.280262
88 1 0.12024 0.215136 0.272913
89 1 0.128964 0.432298 0.277529
90 1 0.13194 0.362557 0.272048
91 1 0.129131 0.175958 0.294674
92 1 0.126168 0.218045 0.293904
93 1 0.135019 0.427604 0.27135
94 1 0.138041 0.357976 0.286497
95 1 0.135031 0.166426 0.302252
96 1 0.132103 0.214654 0.290603
97 1 0.140963 0.427905 0.288014
98 1 0.143876 0.359111 0.294713
99 1 0.141037 0.165779 0.294897
100 1 0.138096 0.20656 0.300643
101 1 0.146858 0.427338 0.293454
102 1 0.149876 0.355078 0.303834
103 1 0.146848 0.171006 0.306227
104 1 0.143896 0.212078 0.300996
105 1 0.15281 0.423658 0.299513
106 1 0.155952 0.365174 0.308786
107 1 0.152976 0.163588 0.324353
108 1 0.149907 0.203626 0.310033
109 1 0.158854 0.430475 0.308975
110 1 0.161843 0.363391 0.317796
111 1 0.158906 0.176665 0.337657
112 1 0.155878 0.215335 0.32269
113 1 0.164882 0.427458 0.304599
114 1 0.167826 0.361918 0.316613
115 1 0.164915 0.171535 0.355963
116 1 0.161922 0.216423 0.342296
117 1 0.170884 0.427715 0.299845
118 1 0.173889 0.360822 0.308829
119 1 0.170808 0.177404 0.363701
120 1 0.167847 0.221607 0.354304
121 1 0.176829 0.423742 0.28898
122 1 0.179963 0.36493 0.298096
123 1 0.176941 0.181879 0.363544
124 1 0.173885 0.213389 0.348215
125 1 0.182913 0.428007 0.284601
126 1 0.185823 0.368078 0.311516
127 1 0.182902 0.180673 0.356176
128 1 0.179885 0.225828 0.342726
129 1 0.188973 0.433109 0.293059
130 1 0.191948 0.373293 0.311347
131 1 0.188834 0.187674 0.358909
132 1 0.185795 0.223519 0.347572
133 1 0.194898 0.444228 0.301703
134 1 0.197838 0.382993 0.318156
135 1 0.194874 0.190042 0.366783
136 1 0.191871 0.22999 0.351229
137 1 0.200866 0.449324 0.295127
138 1 0.203981 0.379911 0.313474
139 1 0.200814 0.199474 0.365204
140 1 0.197776 0.242383 0.359441
141 1 0.206972 0.448861 0.302232
142 1 0.209904 0.382297 0.319766
143 1 0.206801 0.197378 0.35111
144 1 0.203781 0.236748 0.347528
145 1 0.21291 0.448922 0.304492
146 1 0.215846 0.380161 0.314286
147 1 0.21287 0.194048 0.356094
148 1 0.209856 0.239468 0.344505
149 1 0.218839 0.450262 0.293892
150 1 0.221768 0.386619 0.311684
151 1 0.218965 0.196342 0.35322
152 1 0.215848 0.235225 0.349487
153 1 0.22486 0.45504 0.294907
154 1 0.228035 0.388499 0.304265
155 1 0.224905 0.203663 0.346431
156 1 0.221853 0.244565 0.346774
157 1 0.230919 0.457548 0.291616
158 1 0.233936 0.39385 0.307617
159 1 0.230902 0.200764 0.333242
160 1 0.227936 0.241567 0.323031
161 1 0.236926 0.457962 0.29922
162 1 0.239867 0.386839 0.309707
163 1 0.236956 0.20181 0.343926
164 1 0.234007 0.242927 0.335665
165 1 0.242804 0.451916 0.291183
166 1 0.2458 0.3812 0.309603
167 1 0.242885 0.199136 0.355742
168 1 0.239961 0.244116 0.346165
169 1 0.248908 0.443583 0.294994
170 1 0.251691 0.374231 0.312648
171 1 0.248743 0.195075 0.351272
172 1 0.245839 0.238434 0.343709
173 1 0.2548 0.434233 0.283477
174 1 0.257941 0.367904 0.300342
175 1 0.254736 0.191444 0.364614
176 1 0.251771 0.232145 0.34614
177 1 0.260932 0.427743 0.282567
178 1 0.263923 0.364109 0.308035
179 1 0.260703 0.191584 0.376011
180 1 0.257729 0.22432 0.353328
181 1 0.266839 0.429266 0.293971
182 1 0.269897 0.367389 0.311573
183 1 0.266838 0.187932 0.376063
184 1 0.263762 0.225313 0.359185
185 1 0.272782 0.430643 0.281084
186 1 0.275662 0.363525 0.302105
187 1 0.272777 0.180584 0.373736
188 1 0.269831 0.227736 0.362586
189 1 0.278794 0.425044 0.2813
190 1 0.281687 0.354408 0.303375
191 1 0.278734 0.17859 0.362094
192 1 0.275705 0.217621 0.354272
193 1 0.284835 0.416246 0.286779
194 1 0.287966 0.351739 0.306671
195 1 0.284848 0.175063 0.356701
196 1 0.281767 0.212885 0.346775
197 1 0.291099 0.418371 0.278564
198 1 0.294036 0.348001 0.298089
199 1 0.290888 0.176812 0.361632
200 1 0.287962 0.211735 0.34395
201 1 0.296914 0.420583 0.281526
202 1 0.2999 0.358687 0.299933
203 1 0.297082 0.173633 0.363787
204 1 0.294046 0.213021 0.345592
205 1 0.302896 0.423752 0.273611
206 1 0.305797 0.361068 0.289077
207 1 0.303102 0.186671 0.361498
208 1 0.300082 0.222773 0.349631
209 1 0.308875 0.422474 0.258753
210 1 0.311961 0.368342 0.280456
211 1 0.309038 0.196964 0.362892
212 1 0.305994 0.227349 0.343591
213 1 0.314951 0.434006 0.260936
214 1 0.317956 0.368732 0.282529
215 1 0.31497 0.191012 0.345439
216 1 0.312071 0.233812 0.33033
217 1 0.320881 0.429337 0.263041
218 1 0.323888 0.365366 0.281272
219 1 0.320832 0.185999 0.337854
220 1 0.317958 0.227962 0.331447
221 1 0.32686 0.425051 0.25661
222 1 0.329798 0.360256 0.277962
223 1 0.326867 0.191711 0.334372
224 1 0.323905 0.230048 0.324358
225 1 0.332886 0.427317 0.261648
226 1 0.335989 0.366251 0.288675
227 1 0.332871 0.183082 0.340176
228 1 0.329876 0.222934 0.319948
229 1 0.338853 0.433293 0.265604
230 1 0.341762 0.370164 0.289843
231 1 0.338767 0.186595 0.342706
232 1 0.335833 0.228051 0.332926
233 1 0.344761 0.432483 0.27136
234 1 0.347724 0.37106 0.305372
235 1 0.344706 0.19493 0.354173
236 1 0.341705 0.227389 0.336434
237 1 0.350732 0.427128 0.284255
238 1 0.35364 0.36884 0.316882
239 1 0.350832 0.197919 0.386368
240 1 0.347789 0.233222 0.35681
241 1 0.356784 0.421591 0.287893
242 1 0.359833 0.354848 0.319708
243 1 0.35683 0.185568 0.388156
244 1 0.353908 0.235795 0.371999
245 1 0.362817 0.411225 0.288116
246 1 0.365969 0.353906 0.315694
247 1 0.362917 0.182855 0.396805
248 1 0.35988 0.220591 0.376052
249 1 0.368866 0.412941 0.290328
250 1 0.371999 0.359567 0.324357
251 1 0.368829 0.19248 0.405942
252 1 0.365849 0.222703 0.381563
253 1 0.374877 0.419992 0.291047
254 1 0.377823 0.356863 0.326172
255 1 0.374853 0.199812 0.421081
256 1 0.371868 0.232559 0.393247
257 1 0.380877 0.418471 0.289673
258 1 0.383768 0.355384 0.318113
259 1 0.380873 0.20594 0.423869
260 1 0.377743 0.238678 0.401882
261 1 0.386816 0.415001 0.283343
262 1 0.389917 0.361538 0.319648
263 1 0.386881 0.204931 0.421304
264 1 0.383798 0.242252 0.397121
265 1 0.393011 0.412827 0.280101
266 1 0.396058 0.359149 0.314714
267 1 0.39303 0.206577 0.425673
268 1 0.389913 0.236624 0.393915
269 1 0.399055 0.409426 0.275056
270 1 0.402158 0.35828 0.309163
271 1 0.399168 0.21081 0.427949
272 1 0.396142 0.249934 0.408061
273 1 0.405138 0.414455 0.271819
274 1 0.408188 0.360641 0.311538
275 1 0.40517 0.204342 0.413519
276 1 0.402175 0.240015 0.398622
277 1 0.411061 0.413694 0.272352
278 1 0.414171 0.373212 0.310361
279 1 0.411326 0.207775 0.40304
280 1 0.408143 0.234401 0.382101
281 1 0.417044 0.43526 0.283724
282 1 0.420014 0.381389 0.323598
283 1 0.417214 0.210836 0.407007
284 1 0.414267 0.250722 0.388496
285 1 0.423159 0.436648 0.282717
286 1 0.426259 0.378772 0.317695
287 1 0.423202 0.231022 0.423892
288 1 0.420276 0.257595 0.399851
289 1 0.429318 0.427678 0.276881
290 1 0.43224 0.37409 0.318526
291 1 0.429123 0.220924 0.418726
292 1 0.426143 0.258338 0.396491
293 1 0.435267 0.425469 0.283482
294 1 0.43825 0.365361 0.321212
295 1 0.43506 0.225096 0.432744
296 1 0.432137 0.252606 0.401594
297 1 0.441218 0.418109 0.285096
298 1 0.444136 0.363356 0.326729
299 1 0.441023 0.217311 0.432548
300 1 0.438005 0.250148 0.401566
301 1 0.447199 0.418682 0.296109
302 1 0.450105 0.362646 0.335968
303 1 0.446983 0.208708 0.440536
304 1 0.444057 0.248909 0.413926
305 1 0.453139 0.405978 0.295509
306 1 0.456088 0.345447 0.323454
307 1 0.452836 0.184866 0.428961
308 1 0.449972 0.237297 0.417455
309 1 0.458987 0.395183 0.285045
310 1 0.461809 0.338024 0.328398
311 1 0.458739 0.176519 0.425163
312 1 0.455729 0.218881 0.402833
313 1 0.464829 0.381426 0.296045
314 1 0.467944 0.326184 0.339573
315 1 0.464484 0.178651 0.431144
316 1 0.461662 0.215243 0.407236
317 1 0.470883 0.378386 0.319237
318 1 0.473757 0.316228 0.354382
319 1 0.470396 0.160024 0.448414
320 1 0.467495 0.204508 0.420007
321 1 0.476748 0.350449 0.315497
322 1 0.479595 0.285752 0.358633
323 1 0.476191 0.149913 0.465522
324 1 0.473442 0.196428 0.436807
325 1 0.482789 0.345838 0.342483
326 1 0.485429 0.297292 0.405288
327 1 0.482143 0.144834 0.484493
328 1 0.479252 0.173416 0.443458
329 1 0.488607 0.33732 0.396944
330 1 0.491099 0.305023 0.479759
331 1 0.487727 0.170648 0.52479
332 1 0.484986 0.188115 0.475918
333 1 0.494082 0.34587 0.489013
334 1 0.496065 0.334857 0.589924
335 1 0.492595 0.213706 0.653149
336 1 0.490419 0.208306 0.57025
337 1 0.499053 0.373765 0.602299
338 1 0.500803 0.396376 0.71416
339 1 0.496948 0.293692 0.791234
340 1 0.495006 0.269939 0.698556
341 1 0.503632 0.458701 0.726632
342 1 0.504712 0.529277 0.8363
343 1 0.501127 0.412026 0.919078
344 1 0.499509 0.358681 0.825871
345 1 0.506876 0.631452 0.825732
346 1 0.506583 0.765004 0.879455
347 1 0.50318 0.641009 0.993261
348 1 0.503076 0.510067 0.944969
349 1 0.50769 0.879598 0.811321
350 1 0.505218 0.948818 0.742922
351 1 0.5024 0.878462 0.901122
352 1 0.503823 0.774391 0.963603
353 1 0.505456 0.976441 0.609328
354 1 0.503029 0.940929 0.529199
355 1 0.500246 0.952142 0.702204
356 1 0.5023 0.941737 0.794196
357 1 0.50338 0.899237 0.404015
358 1 0.500877 0.860121 0.318187
359 1 0.497949 0.904453 0.484718
360 1 0.499931 0.938971 0.574547
361 1 0.50132 0.792539 0.202876
362 1 0.49885 0.73343 0.127172
363 1 0.495929 0.826392 0.273575
364 1 0.497711 0.871198 0.367451
365 1 0.49927 0.62171 0.0428646
366 1 0.496826 0.528733 0.0110324
367 1 0.493919 0.699389 0.0764849
368 1 0.495768 0.768355 0.160201
369 1 0.49717 0.383855 0.0278702
370 1 0.494674 0.300653 0.0875267
371 1 0.49182 0.469753 0.0238569
372 1 0.493725 0.572086 0.0121384
373 1 0.4953 0.197234 0.1775
374 1 0.492891 0.130679 0.253883
375 1 0.489714 0.251849 0.143476
376 1 0.491599 0.338185 0.0784749
377 1 0.493365 0.0576958 0.373612
378 1 0.490821 0.012217 0.455847
379 1 0.488019 0.0816703 0.302408
380 1 0.489787 0.151864 0.230885
381 1 0.491184 0.00438149 0.590953
382 1 0.48854 0.0383227 0.671017
383 1 0.48564 -0.0156714 0.50864
384 1 0.487679 0.00407443 0.410226
385 1 0.489342 0.138244 0.768993
386 1 0.488521 0.279701 0.731292
387 1 0.484502 0.171384 0.66124
388 1 0.485406 0.0319707 0.629439
389 1 0.490811 0.382831 0.736404
390 1 0.491681 0.475701 0.63422
391 1 0.487047 0.406675 0.575064
392 1 0.486055 0.298016 0.657383
393 1 0.494577 0.534821 0.619154
394 1 0.496067 0.572267 0.510719
395 1 0.49135 0.552705 0.435925
396 1 0.48948 0.491472 0.536677
397 1 0.499259 0.591058 0.498486
398 1 0.501235 0.592396 0.390747
399 1 0.496746 0.621696 0.306415
400 1 0.494437 0.595665 0.401628
401 1 0.50471 0.589961 0.37976
402 1 0.507064 0.5511 0.291198
403 1 0.502818 0.542663 0.198474
404 1 0.500075 0.601295 0.266276
405 1 0.510546 0.553105 0.293326
406 1 0.512998 0.483977 0.236214
407 1 0.509148 0.394994 0.153821
408 1 0.506197 0.470816 0.186696
409 1 0.516293 0.52035 0.255318
410 1 0.519208 0.466246 0.20346
411 1 0.515302 0.333287 0.109851
412 1 0.51237 0.379003 0.146739
413 1 0.522437 0.505692 0.237481
414 1 0.525342 0.433335 0.200716
415 1 0.521659 0.304783 0.0943143
416 1 0.518534 0.350596 0.114327
417 1 0.52835 0.479063 0.232386
418 1 0.53132 0.410363 0.19782
419 1 0.527819 0.275183 0.0896511
420 1 0.524883 0.314019 0.11781
421 1 0.534486 0.456835 0.235613
422 1 0.537533 0.395562 0.192631
423 1 0.534149 0.258293 0.0922496
424 1 0.531013 0.294749 0.116403
425 1 0.540505 0.444733 0.231662
426 1 0.543468 0.391304 0.185267
427 1 0.540154 0.236405 0.0966641
428 1 0.537291 0.286068 0.110236
429 1 0.546549 0.441925 0.221827
430 1 0.549504 0.382762 0.186138
431 1 0.546328 0.231551 0.0881049
432 1 0.543183 0.267527 0.11355
433 1 0.552549 0.4379 0.221289
434 1 0.555486 0.375375 0.189413
435 1 0.552384 0.217708 0.0956959
436 1 0.549256 0.259299 0.114858
437 1 0.558409 0.436271 0.212082
438 1 0.561433 0.376357 0.18553
439 1 0.55825 0.214719 0.101634
440 1 0.555283 0.251893 0.119128
441 1 0.564396 0.436169 0.217348
442 1 0.567508 0.380419 0.17584
443 1 0.56437 0.213654 0.0961317
444 1 0.56126 0.246198 0.115502
445 1 0.570625 0.43625 0.204711
446 1 0.573621 0.381863 0.170979
447 1 0.570435 0.220667 0.0790879
448 1 0.567387 0.257233 0.101922
449 1 0.576693 0.435315 0.200911
450 1 0.579595 0.378765 0.168106
451 1 0.576493 0.212877 0.0793565
452 1 0.573536 0.249157 0.102985
453 1 0.582529 0.440118 0.198848
454 1 0.585545 0.381959 0.16164
455 1 0.58273 0.220991 0.0693023
456 1 0.579514 0.250377 0.0909867
457 1 0.588424 0.442921 0.194782
458 1 0.591528 0.385762 0.159129
459 1 0.588676 0.222015 0.0660757
460 1 0.58573 0.255313 0.0927354
461 1 0.594564 0.433836 0.197694
462 1 0.597547 0.384119 0.162272
463 1 0.594663 0.228787 0.0654686
464 1 0.591701 0.261966 0.0833643
465 1 0.600502 0.443005 0.195382
466 1 0.603418 0.382147 0.164906
467 1 0.600714 0.227739 0.0683998
468 1 0.597744 0.263144 0.0849496
469 1 0.606657 0.433346 0.197114
470 1 0.609575 0.375533 0.164788
471 1 0.606696 0.214003 0.0791708
472 1 0.603779 0.254318 0.090417
473 1 0.612598 0.42907 0.20047
474 1 0.615625 0.362429 0.169533
475 1 0.612435 0.207953 0.0818153
476 1 0.609555 0.248656 0.104143
477 1 0.618593 0.416158 0.207828
478 1 0.621584 0.361248 0.177407
479 1 0.618523 0.20503 0.0783152
480 1 0.615542 0.23926 0.0949299
481 1 0.624615 0.42289 0.196832
482 1 0.627436 0.364553 0.165949
483 1 0.624512 0.199787 0.0766319
484 1 0.621546 0.237028 0.104297
485 1 0.630489 0.418335 0.197357
486 1 0.633495 0.360475 0.168854
487 1 0.630534 0.196036 0.0743557
488 1 0.627432 0.23783 0.0937207
489 1 0.636629 0.41775 0.203938
490 1 0.639627 0.361308 0.169706
491 1 0.63671 0.198393 0.0782039
492 1 0.633561 0.228565 0.0978682
493 1 0.642597 0.417942 0.208135
494 1 0.645647 0.357964 0.178539
495 1 0.642643 0.189 0.0945199
496 1 0.6397 0.232003 0.102109
497 1 0.648652 0.419272 0.212121
498 1 0.65166 0.353895 0.195743
499 1 0.648685 0.177396 0.119068
500 1 0.645611 0.219026 0.11948
501 1 0.6546 0.414165 0.224981
502 1 0.657626 0.360473 0.199562
503 1 0.65469 0.185917 0.124634
504 1 0.651688 0.216059 0.136087
505 1 0.66062 0.42305 0.228333
506 1 0.663577 0.36659 0.196895
507 1 0.660752 0.191167 0.124229
508 1 0.657609 0.227196 0.141921
509 1 0.666598 0.425698 0.225562
510 1 0.669708 0.368078 0.203755
511 1 0.666767 0.195232 0.11989
512 1 0.663761 0.231934 0.138685
513 1 0.672635 0.434568 0.227301
514 1 0.675628 0.379931 0.187463
515 1 0.672759 0.200682 0.126542
516 1 0.66972 0.232829 0.143864
517 1 0.678645 0.432071 0.21971
518 1 0.681647 0.372735 0.188384
519 1 0.678656 0.208636 0.106036
520 1 0.675766 0.24303 0.132943
521 1 0.684551 0.427207 0.222617
522 1 0.687609 0.364075 0.197497
523 1 0.684698 0.194704 0.122095
524 1 0.681751 0.237806 0.130631
525 1 0.69073 0.430844 0.223594
526 1 0.693749 0.373349 0.193159
527 1 0.690826 0.194972 0.124894
528 1 0.687698 0.23207 0.13814
529 1 0.696812 0.429876 0.2279
530 1 0.69971 0.36522 0.200282
531 1 0.696795 0.190587 0.12814
532 1 0.693829 0.235305 0.135654
533 1 0.70268 0.424483 0.233418
534 1 0.70565 0.362611 0.20901
535 1 0.702796 0.186279 0.136203
536 1 0.699788 0.230284 0.141329
537 1 0.708747 0.427041 0.224485
538 1 0.711866 0.360111 0.205202
539 1 0.708769 0.181667 0.145419
540 1 0.705817 0.224973 0.1596
541 1 0.714853 0.426616 0.229115
542 1 0.717908 0.367561 0.202114
543 1 0.714856 0.183737 0.145471
544 1 0.711791 0.22045 0.155533
545 1 0.720953 0.43106 0.22305
546 1 0.724106 0.367822 0.209148
547 1 0.720893 0.191043 0.143012
548 1 0.717853 0.222553 0.16002
549 1 0.727016 0.43105 0.233612
550 1 0.730065 0.364761 0.209228
551 1 0.727006 0.191477 0.136162
552 1 0.723947 0.232994 0.153664
553 1 0.733055 0.427963 0.23218
554 1 0.736052 0.366592 0.210675
555 1 0.73302 0.186565 0.150014
556 1 0.729996 0.227643 0.159766
557 1 0.739055 0.428111 0.234546
558 1 0.742043 0.36336 0.216626
559 1 0.739024 0.183042 0.149311
560 1 0.736066 0.228115 0.166087
561 1 0.745109 0.431431 0.242002
562 1 0.748074 0.369838 0.226351
563 1 0.745176 0.186831 0.160137
564 1 0.742123 0.223316 0.17196
565 1 0.750999 0.433026 0.250748
566 1 0.754042 0.372553 0.220391
567 1 0.7512 0.201619 0.152853
568 1 0.748196 0.232061 0.176245
569 1 0.756934 0.439486 0.243042
570 1 0.759978 0.372097 0.218209
571 1 0.757106 0.19716 0.145597
572 1 0.754173 0.237767 0.166212
573 1 0.762817 0.436424 0.252992
574 1 0.765971 0.374911 0.227599
575 1 0.763123 0.209227 0.140482
576 1 0.760123 0.23811 0.158248
577 1 0.768984 0.444153 0.241847
578 1 0.771935 0.378549 0.217934
579 1 0.769127 0.211399 0.148843
580 1 0.766117 0.250577 0.162736
581 1 0.775089 0.437985 0.247949
582 1 0.777931 0.372743 0.226717
583 1 0.775109 0.199855 0.149699
584 1 0.772215 0.239515 0.161605
585 1 0.78088 0.432799 0.250494
586 1 0.784017 0.373653 0.220525
587 1 0.78094 0.204084 0.145788
588 1 0.777927 0.238527 0.172024
589 1 0.787043 0.436484 0.248467
590 1 0.790033 0.377127 0.228806
591 1 0.786967 0.206498 0.145171
592 1 0.783919 0.245134 0.157593
593 1 0.793126 0.44494 0.257716
594 1 0.796071 0.375279 0.231755
595 1 0.792953 0.200435 0.159017
596 1 0.789973 0.245336 0.174386
597 1 0.799085 0.440366 0.248595
598 1 0.802021 0.373797 0.233718
599 1 0.798891 0.191424 0.166827
600 1 0.795994 0.24063 0.177102
601 1 0.804912 0.441712 0.250399
602 1 0.807993 0.38084 0.230271
603 1 0.804886 0.199235 0.187582
604 1 0.801794 0.232002 0.194741
605 1 0.811018 0.438825 0.246866
606 1 0.814066 0.372052 0.222036
607 1 0.810857 0.192179 0.181123
608 1 0.807933 0.237711 0.192942
609 1 0.817077 0.437326 0.236209
610 1 0.820052 0.36711 0.221487
611 1 0.816941 0.187964 0.178266
612 1 0.813929 0.229321 0.184777
613 1 0.823076 0.4306 0.237861
614 1 0.826156 0.369457 0.222148
615 1 0.822986 0.184499 0.175158
616 1 0.819926 0.223192 0.189369
617 1 0.829087 0.434973 0.24105
618 1 0.832138 0.373354 0.225291
619 1 0.828929 0.185545 0.176039
620 1 0.825912 0.225477 0.186455
621 1 0.8351 0.43675 0.238937
622 1 0.838067 0.36505 0.233808
623 1 0.834937 0.184455 0.184385
624 1 0.831855 0.227522 0.187754
625 1 0.841117 0.430029 0.249483
626 1 0.84403 0.367196 0.230999
627 1 0.841117 0.184374 0.194184
628 1 0.838014 0.220769 0.197568
629 1 0.84701 0.432131 0.250338
630 1 0.850192 0.368631 0.23247
631 1 0.847165 0.177121 0.203208
632 1 0.844088 0.218388 0.209596
633 1 0.85317 0.434626 0.25716
634 1 0.856119 0.361941 0.240482
635 1 0.853278 0.177238 0.195009
636 1 0.850272 0.221158 0.20334
637 1 0.859201 0.426422 0.263382
638 1 0.862286 0.360867 0.245632
639 1 0.859228 0.178028 0.204057
640 1 0.856245 0.221435 0.208596
641 1 0.865325 0.429256 0.261965
642 1 0.868283 0.359093 0.251775
643 1 0.865229 0.171946 0.212266
644 1 0.862334 0.217136 0.212357
645 1 0.871355 0.431136 0.271994
646 1 0.874251 0.361232 0.258402
647 1 0.871157 0.172975 0.213282
648 1 0.868197 0.214806 0.218136
649 1 0.877195 0.431623 0.275699
650 1 0.880187 0.365773 0.268994
651 1 0.877281 0.180234 0.231666
652 1 0.874219 0.215532 0.229827
653 1 0.883189 0.431727 0.280564
654 1 0.8863 0.369704 0.277992
655 1 0.883218 0.181139 0.241357
656 1 0.880183 0.221066 0.250254
657 1 0.889283 0.434559 0.290478
658 1 0.892337 0.363831 0.289098
659 1 0.889277 0.181232 0.25654
660 1 0.886139 0.2244 0.254653
661 1 0.895285 0.42997 0.289979
662 1 0.898245 0.356932 0.287072
663 1 0.895225 0.173625 0.25923
664 1 0.892203 0.216084 0.266692
665 1 0.901279 0.424496 0.297326
666 1 0.904254 0.352649 0.283058
667 1 0.901243 0.168773 0.252105
668 1 0.898257 0.21209 0.269269
669 1 0.907403 0.416179 0.287303
670 1 0.910333 0.351326 0.27703
671 1 0.907121 0.168933 0.242107
672 1 0.904171 0.209605 0.253449
673 1 0.913257 0.417105 0.289803
674 1 0.916265 0.353225 0.277962
675 1 0.913361 0.162215 0.247456
676 1 0.910189 0.205142 0.255164
677 1 0.919409 0.416523 0.284699
678 1 0.922365 0.350325 0.271151
679 1 0.919411 0.161403 0.247441
680 1 0.916457 0.205763 0.252409
681 1 0.925509 0.415945 0.268032
682 1 0.928466 0.349196 0.254878
683 1 0.925526 0.157793 0.250396
684 1 0.9225 0.200275 0.260995
685 1 0.931469 0.415237 0.266039
686 1 0.934409 0.349296 0.262641
687 1 0.931541 0.163825 0.242225
688 1 0.928531 0.199923 0.244723
689 1 0.937433 0.422631 0.269734
690 1 0.940418 0.35549 0.269549
691 1 0.937531 0.169195 0.256888
692 1 0.934522 0.205629 0.253543
693 1 0.9434 0.423397 0.272815
694 1 0.946514 0.359632 0.269811
695 1 0.943513 0.168605 0.265701
696 1 0.940539 0.210742 0.257026
697 1 0.949487 0.434285 0.275364
698 1 0.952438 0.373432 0.283497
699 1 0.949545 0.173337 0.272834
700 1 0.946527 0.21112 0.269514
701 1 0.955545 0.437216 0.2917
702 1 0.958386 0.37122 0.293957
703 1 0.95542 0.181975 0.273781
704 1 0.95254 0.228612 0.273278
705 1 0.961379 0.44064 0.292638
706 1 0.964503 0.366588 0.29307
707 1 0.961424 0.176564 0.286991
708 1 0.958442 0.223756 0.285032
709 1 0.967327 0.434681 0.294491
710 1 0.970359 0.362962 0.28491
711 1 0.967445 0.172104 0.279988
712 1 0.964448 0.220215 0.289728
713 1 0.973362 0.431229 0.287728
714 1 0.976483 0.364563 0.285042
715 1 0.973558 0.17211 0.280404
716 1 0.970489 0.211663 0.276055
717 1 0.979561 0.433185 0.28597
718 1 0.982446 0.366343 0.276381
719 1 0.979608 0.170583 0.275934
720 1 0.976506 0.208491 0.27747
721 1 0.985589 0.432951 0.276374
722 1 0.988606 0.366464 0.278524
723 1 0.98557 0.175883 0.267965
724 1 0.982565 0.218637 0.268861
725 1 0.991518 0.435911 0.281017
726 1 0.994441 0.367713 0.281664
727 1 0.991606 0.180073 0.277413
728 1 0.988666 0.219661 0.27426
729 1 0.00856631 0.82678 0.285188
730 1 0.0115404 0.784335 0.288723
731 1 0.00858569 0.57182 0.283023
732 1 0.00566484 0.64228 0.281526
733 1 0.0145711 0.825697 0.28995
734 1 0.0175586 0.782231 0.292395
735 1 0.0145682 0.568097 0.291154
736 1 0.0115551 0.637064 0.28614
737 1 0.0205509 0.831792 0.286388
738 1 0.0235444 0.791228 0.276719
739 1 0.0206402 0.565249 0.289645
740 1 0.0176153 0.635754 0.289273
741 1 0.0265825 0.82228 0.274639
742 1 0.0295702 0.775824 0.271576
743 1 0.0266795 0.563053 0.281823
744 1 0.0236586 0.63775 0.286101
745 1 0.0325772 0.819664 0.267144
746 1 0.0355496 0.781246 0.270875
747 1 0.0326165 0.562522 0.283485
748 1 0.0295714 0.629107 0.28306
749 1 0.0385572 0.825986 0.27459
750 1 0.0415454 0.781463 0.270925
751 1 0.0386145 0.56166 0.273507
752 1 0.0355437 0.63192 0.273449
753 1 0.0446366 0.818275 0.266778
754 1 0.0475971 0.774585 0.267846
755 1 0.0447209 0.567602 0.282375
756 1 0.0416585 0.630756 0.274766
757 1 0.0506401 0.821126 0.272149
758 1 0.0536046 0.777993 0.27529
759 1 0.0508082 0.560303 0.280743
760 1 0.0477828 0.628299 0.279671
761 1 0.056643 0.820343 0.271675
762 1 0.0597126 0.777081 0.277956
763 1 0.0568558 0.557402 0.272482
764 1 0.0537627 0.635372 0.285493
765 1 0.0626655 0.820031 0.274363
766 1 0.0657023 0.774926 0.269847
767 1 0.0627208 0.561438 0.272739
768 1 0.0597176 0.628543 0.273571
769 1 0.0686963 0.817586 0.27508
770 1 0.0716556 0.776821 0.277036
771 1 0.0686293 0.563375 0.277638
772 1 0.0657001 0.628352 0.275219
773 1 0.0745759 0.818267 0.271964
774 1 0.0776172 0.775263 0.27566
775 1 0.0745499 0.561759 0.272272
776 1 0.0715066 0.628928 0.274653
777 1 0.0806267 0.820283 0.258434
778 1 0.0836552 0.776713 0.247796
779 1 0.0807058 0.5608 0.272666
780 1 0.0775731 0.625697 0.275571
781 1 0.0865862 0.821024 0.239695
782 1 0.0895587 0.780778 0.243551
783 1 0.0868236 0.563894 0.265612
784 1 0.0837286 0.634704 0.259714
785 1 0.0925555 0.820988 0.232024
786 1 0.095592 0.786166 0.238789
787 1 0.092938 0.564846 0.259537
788 1 0.0897354 0.631796 0.261374
789 1 0.0987437 0.827032 0.236987
790 1 0.101709 0.782501 0.235528
791 1 0.0988982 0.566188 0.240531
792 1 0.0958581 0.636006 0.254267
793 1 0.104762 0.826156 0.228151
794 1 0.107738 0.78611 0.229524
795 1 0.104915 0.564668 0.247409
796 1 0.101852 0.632836 0.239743
797 1 0.110636 0.823119 0.223316
798 1 0.113719 0.782478 0.229458
799 1 0.110661 0.570745 0.25497
800 1 0.107739 0.63903 0.241762
801 1 0.116672 0.828389 0.237313
802 1 0.119707 0.792657 0.23281
803 1 0.116842 0.570992 0.247889
804 1 0.113756 0.636364 0.246681
805 1 0.122677 0.833713 0.22906
806 1 0.125857 0.79462 0.23681
807 1 0.122948 0.576975 0.253912
808 1 0.119875 0.649483 0.244224
809 1 0.128918 0.832617 0.238764
810 1 0.131867 0.789692 0.24323
811 1 0.128961 0.580198 0.257744
812 1 0.125944 0.643961 0.247576
813 1 0.134838 0.825386 0.23318
814 1 0.137939 0.784308 0.231364
815 1 0.135 0.570249 0.257317
816 1 0.131972 0.642402 0.254118
817 1 0.140944 0.824903 0.224574
818 1 0.143957 0.792297 0.241085
819 1 0.141071 0.571242 0.273666
820 1 0.138005 0.638787 0.258972
821 1 0.147003 0.827286 0.23489
822 1 0.149916 0.787632 0.246722
823 1 0.14696 0.573327 0.28368
824 1 0.143956 0.642403 0.26697
825 1 0.152962 0.829903 0.236324
826 1 0.155829 0.783158 0.243604
827 1 0.152805 0.565229 0.283406
828 1 0.149925 0.637367 0.273175
829 1 0.158761 0.827575 0.242137
830 1 0.161877 0.783567 0.238417
831 1 0.158874 0.568481 0.277876
832 1 0.155845 0.631659 0.2665
833 1 0.164891 0.826581 0.236249
834 1 0.167765 0.782593 0.238082
835 1 0.164806 0.566291 0.278432
836 1 0.16183 0.639128 0.265839
837 1 0.170683 0.827639 0.231909
838 1 0.173714 0.787463 0.230351
839 1 0.170845 0.566983 0.272046
840 1 0.167893 0.635343 0.266152
841 1 0.176642 0.824035 0.225041
842 1 0.17966 0.783507 0.226786
843 1 0.176798 0.564404 0.266122
844 1 0.173754 0.63803 0.258337
845 1 0.18277 0.820764 0.214176
846 1 0.18587 0.782655 0.221234
847 1 0.182946 0.568342 0.255503
848 1 0.17975 0.631971 0.250575
849 1 0.188825 0.827968 0.207415
850 1 0.191903 0.795955 0.213292
851 1 0.188922 0.575363 0.253778
852 1 0.185901 0.637551 0.246122
853 1 0.194849 0.836659 0.201582
854 1 0.197846 0.798427 0.212824
855 1 0.194799 0.582221 0.268758
856 1 0.191782 0.647005 0.241366
857 1 0.200913 0.83363 0.192845
858 1 0.203856 0.79111 0.200125
859 1 0.20087 0.584862 0.254074
860 1 0.197722 0.654859 0.242897
861 1 0.206836 0.837795 0.192533
862 1 0.209954 0.795772 0.208474
863 1 0.20687 0.581683 0.253793
864 1 0.203907 0.646277 0.233352
865 1 0.212918 0.835378 0.207265
866 1 0.215996 0.800341 0.220463
867 1 0.212863 0.589986 0.263912
868 1 0.209901 0.657471 0.247623
869 1 0.218944 0.85039 0.212933
870 1 0.221935 0.801327 0.217949
871 1 0.21888 0.59139 0.270305
872 1 0.215938 0.658108 0.255421
873 1 0.224959 0.843027 0.204166
874 1 0.227972 0.806174 0.202082
875 1 0.224935 0.593549 0.258322
876 1 0.221815 0.658047 0.253743
877 1 0.230884 0.847812 0.185686
878 1 0.233923 0.808881 0.198375
879 1 0.230835 0.601664 0.254761
880 1 0.227787 0.662788 0.236238
881 1 0.236981 0.846511 0.188399
882 1 0.240056 0.804522 0.194944
883 1 0.236876 0.596937 0.261002
884 1 0.233956 0.665421 0.238462
885 1 0.243134 0.833537 0.176879
886 1 0.246051 0.790269 0.183197
887 1 0.243038 0.589594 0.253543
888 1 0.239995 0.659765 0.238477
889 1 0.24915 0.818788 0.164802
890 1 0.252049 0.780981 0.183479
891 1 0.248974 0.582328 0.258145
892 1 0.246097 0.649923 0.234983
893 1 0.255025 0.821657 0.176279
894 1 0.258035 0.781746 0.191491
895 1 0.255074 0.573439 0.257537
896 1 0.252038 0.643323 0.237503
897 1 0.261067 0.824187 0.179605
898 1 0.263973 0.778889 0.190747
899 1 0.260878 0.564885 0.243027
900 1 0.258058 0.642493 0.230451
901 1 0.26699 0.814435 0.172893
902 1 0.269897 0.771544 0.177167
903 1 0.266906 0.568457 0.249798
904 1 0.263912 0.630138 0.225462
905 1 0.272968 0.820201 0.170584
906 1 0.276045 0.779612 0.179815
907 1 0.272961 0.571264 0.240089
908 1 0.269857 0.633528 0.226033
909 1 0.279107 0.812314 0.161034
910 1 0.28207 0.758602 0.164818