ITEM: TIMESTEP
60000
ITEM: NUMBER OF ATOMS
1456
ITEM: BOX BOUNDS ss ss ss
-0.0399323 442.629
9.52324 22.2704
6.40179 17.9943
ITEM: ATOMS id type xs ys zs
1 1 0.0028974 0.223242 0.307877
2 1 0.00564685 0.166306 0.307873
3 1 0.00286158 0.00108103 0.307866
4 1 9.94049e-05 0.0548728 0.30788
5 1 0.00288496 0.556835 0.307867
6 1 0.00564693 0.501539 0.307919
7 1 0.0028472 0.334184 0.307875
8 1 0.000101244 0.389707 0.307875
9 1 0.00876733 0.216396 0.308289
10 1 0.0117508 0.160177 0.307647
11 1 0.0087904 0.0103526 0.3055
12 1 0.00582184 0.0440913 0.307127
13 1 0.0148508 0.213916 0.308205
14 1 0.0178701 0.155645 0.302283
15 1 0.0146948 0.00128944 0.306449
16 1 0.0117704 0.0438331 0.304864
17 1 0.0208692 0.215051 0.306464
18 1 0.0239122 0.15675 0.308462
19 1 0.0209066 -0.00134479 0.298788
20 1 0.017772 0.0308744 0.30333
21 1 0.0268648 0.212511 0.299747
22 1 0.0299874 0.164019 0.304816
23 1 0.0269655 0.010035 0.308096
24 1 0.0238521 0.0375085 0.303614
25 1 0.0330104 0.21624 0.307079
26 1 0.0359959 0.162766 0.314882
27 1 0.0330217 0.0148053 0.318124
28 1 0.0299352 0.0465752 0.310634
29 1 0.0389407 0.218464 0.307259
30 1 0.0420164 0.165907 0.304563
31 1 0.0391006 0.01302 0.325638
32 1 0.0360533 0.0464257 0.324787
33 1 0.0450683 0.216418 0.298377
34 1 0.0479927 0.167055 0.315238
35 1 0.0449542 0.0127752 0.325816
36 1 0.0420316 0.0529923 0.316424
37 1 0.0510858 0.220891 0.308673
38 1 0.0540958 0.168813 0.30982
39 1 0.0511381 0.0142781 0.323719
40 1 0.0480513 0.0481628 0.321201
41 1 0.0571245 0.223732 0.295926
42 1 0.0601482 0.170855 0.309887
43 1 0.0571065 0.0206523 0.314356
44 1 0.0540319 0.051959 0.316185
45 1 0.0630627 0.222515 0.297276
46 1 0.0662624 0.171621 0.303106
47 1 0.0631943 0.0240857 0.318358
48 1 0.0601287 0.055587 0.3184
49 1 0.0691861 0.227624 0.298545
50 1 0.0722234 0.174374 0.307051
51 1 0.0692676 0.0215182 0.320973
52 1 0.0662688 0.058448 0.314507
53 1 0.0752602 0.231474 0.303409
54 1 0.0783295 0.178624 0.309538
55 1 0.075327 0.0302672 0.329048
56 1 0.0722856 0.06008 0.322828
57 1 0.0813266 0.230135 0.307972
58 1 0.084354 0.180304 0.322017
59 1 0.0813549 0.0264334 0.341432
60 1 0.0783027 0.0646831 0.330664
61 1 0.0873048 0.232137 0.309311
62 1 0.0903654 0.179346 0.318467
63 1 0.087331 0.0295738 0.347261
64 1 0.0843501 0.0654615 0.340148
65 1 0.0934297 0.237908 0.30561
66 1 0.0964402 0.183206 0.316998
67 1 0.0934174 0.0283049 0.345285
68 1 0.0904535 0.0604721 0.336258
69 1 0.0994618 0.236684 0.307264
70 1 0.102612 0.184799 0.321171
71 1 0.0994703 0.0395698 0.352398
72 1 0.0964488 0.0688385 0.343736
73 1 0.105579 0.242324 0.308999
74 1 0.108633 0.189821 0.325564
75 1 0.105585 0.0370916 0.366243
76 1 0.102494 0.0699263 0.350622
77 1 0.11161 0.240467 0.306004
78 1 0.114591 0.185768 0.328483
79 1 0.111625 0.0472138 0.381996
80 1 0.108582 0.076635 0.364399
81 1 0.11757 0.239518 0.318069
82 1 0.12066 0.192481 0.348733
83 1 0.117599 0.0472837 0.396055
84 1 0.114584 0.0802158 0.378362
85 1 0.123604 0.242035 0.32352
86 1 0.126668 0.194332 0.348338
87 1 0.123683 0.0493206 0.402017
88 1 0.120608 0.0823122 0.386849
89 1 0.129698 0.248537 0.326819
90 1 0.132791 0.194252 0.34388
91 1 0.129749 0.0532536 0.404893
92 1 0.126779 0.0859873 0.388356
93 1 0.135798 0.247906 0.319704
94 1 0.138837 0.192235 0.338688
95 1 0.135816 0.0500976 0.406412
96 1 0.132842 0.0826339 0.390239
97 1 0.141782 0.243746 0.3161
98 1 0.144771 0.192431 0.333901
99 1 0.141953 0.0518167 0.398997
100 1 0.138879 0.0834893 0.388074
101 1 0.147832 0.247318 0.324213
102 1 0.15088 0.19156 0.349046
103 1 0.147857 0.054526 0.411085
104 1 0.144953 0.0848341 0.385596
105 1 0.153942 0.247924 0.326429
106 1 0.157023 0.195904 0.346596
107 1 0.154008 0.0561473 0.409495
108 1 0.150948 0.0865741 0.405396
109 1 0.159922 0.247948 0.327485
110 1 0.163082 0.200167 0.353159
111 1 0.160007 0.0611258 0.41221
112 1 0.156934 0.0878178 0.395195
113 1 0.166064 0.253542 0.335495
114 1 0.169103 0.208939 0.366601
115 1 0.166104 0.0724031 0.433164
116 1 0.163083 0.0954046 0.407852
117 1 0.172141 0.256234 0.344381
118 1 0.175083 0.203883 0.373744
119 1 0.172193 0.0797251 0.453871
120 1 0.169129 0.105743 0.426312
121 1 0.178192 0.251989 0.346367
122 1 0.181191 0.20373 0.377725
123 1 0.178145 0.0767828 0.470382
124 1 0.175223 0.105035 0.445816
125 1 0.184147 0.254821 0.352613
126 1 0.187223 0.206336 0.381335
127 1 0.184205 0.0766108 0.470999
128 1 0.181219 0.101951 0.446546
129 1 0.190195 0.252694 0.340683
130 1 0.1933 0.209141 0.369984
131 1 0.190236 0.0808701 0.462808
132 1 0.187217 0.104463 0.447079
133 1 0.196196 0.252057 0.333216
134 1 0.199151 0.208963 0.365605
135 1 0.196246 0.078387 0.455346
136 1 0.193158 0.112102 0.439425
137 1 0.202127 0.259008 0.334166
138 1 0.205245 0.215304 0.366924
139 1 0.202378 0.0814794 0.45261
140 1 0.199325 0.105774 0.431053
141 1 0.208351 0.26206 0.331265
142 1 0.211312 0.220947 0.374273
143 1 0.208413 0.08835 0.458418
144 1 0.205366 0.110468 0.433369
145 1 0.214367 0.267737 0.344245
146 1 0.217516 0.221069 0.377053
147 1 0.214386 0.0888622 0.462986
148 1 0.211341 0.11563 0.440539
149 1 0.220622 0.265965 0.339249
150 1 0.223627 0.22199 0.3722
151 1 0.220598 0.0883155 0.452923
152 1 0.217429 0.119356 0.446102
153 1 0.226467 0.264937 0.331526
154 1 0.229597 0.218987 0.369195
155 1 0.226585 0.0950932 0.462452
156 1 0.223605 0.123727 0.437427
157 1 0.232583 0.261158 0.327138
158 1 0.235591 0.21886 0.363257
159 1 0.232671 0.0978302 0.464761
160 1 0.229578 0.122652 0.439262
161 1 0.238607 0.266892 0.333395
162 1 0.241594 0.222981 0.364915
163 1 0.238684 0.105517 0.456034
164 1 0.235695 0.127019 0.436129
165 1 0.2446 0.270935 0.322335
166 1 0.247739 0.223523 0.35124
167 1 0.244863 0.0985154 0.45407
168 1 0.241834 0.127895 0.436766
169 1 0.250616 0.271513 0.315119
170 1 0.253671 0.227895 0.349241
171 1 0.250932 0.095892 0.439085
172 1 0.247829 0.12135 0.421126
173 1 0.256683 0.270206 0.315795
174 1 0.259658 0.225272 0.347835
175 1 0.256827 0.0983973 0.444735
176 1 0.253892 0.130714 0.42399
177 1 0.262595 0.268134 0.312396
178 1 0.265633 0.227666 0.348394
179 1 0.262765 0.0971923 0.438811
180 1 0.259814 0.127451 0.421516
181 1 0.268623 0.276996 0.313397
182 1 0.27171 0.231846 0.341491
183 1 0.268732 0.104905 0.443605
184 1 0.265696 0.131593 0.421016
185 1 0.274816 0.278941 0.309653
186 1 0.277801 0.234581 0.342593
187 1 0.274834 0.111108 0.440422
188 1 0.271722 0.136627 0.420837
189 1 0.280807 0.271322 0.299731
190 1 0.28387 0.229524 0.334
191 1 0.280796 0.120206 0.453364
192 1 0.277877 0.146464 0.426297
193 1 0.286894 0.276768 0.29879
194 1 0.289871 0.244123 0.346268
195 1 0.286844 0.122126 0.451441
196 1 0.283886 0.142331 0.425913
197 1 0.29289 0.284646 0.306044
198 1 0.295832 0.24041 0.342112
199 1 0.293025 0.138485 0.457997
200 1 0.289767 0.158428 0.435816
201 1 0.298849 0.278719 0.300336
202 1 0.301901 0.242352 0.343242
203 1 0.298789 0.135658 0.462679
204 1 0.295918 0.159506 0.428455
205 1 0.304782 0.2743 0.291377
206 1 0.307783 0.234897 0.336028
207 1 0.304869 0.132085 0.464269
208 1 0.301897 0.157564 0.436609
209 1 0.311002 0.275919 0.295986
210 1 0.31403 0.245904 0.349572
211 1 0.310855 0.146628 0.466635
212 1 0.30789 0.158964 0.43289
213 1 0.316995 0.280147 0.303285
214 1 0.31996 0.240499 0.350826
215 1 0.31693 0.146911 0.475649
216 1 0.313877 0.171805 0.448829
217 1 0.322955 0.273704 0.304632
218 1 0.326056 0.23647 0.347568
219 1 0.322913 0.138684 0.47189
220 1 0.319954 0.162167 0.442833
221 1 0.328932 0.277516 0.30406
222 1 0.332052 0.245592 0.351473
223 1 0.328945 0.136783 0.471999
224 1 0.325878 0.160994 0.444482
225 1 0.335068 0.275256 0.306137
226 1 0.338172 0.248222 0.357969
227 1 0.334885 0.147926 0.479983
228 1 0.331884 0.169491 0.450925
229 1 0.341184 0.286786 0.314377
230 1 0.34426 0.259868 0.359741
231 1 0.340994 0.156226 0.486578
232 1 0.337942 0.174312 0.457711
233 1 0.347266 0.290053 0.315341
234 1 0.350273 0.259811 0.361905
235 1 0.34714 0.168173 0.487088
236 1 0.343958 0.184586 0.459582
237 1 0.353305 0.29174 0.312274
238 1 0.356486 0.258518 0.359957
239 1 0.353292 0.178287 0.497925
240 1 0.350209 0.192882 0.464208
241 1 0.359341 0.292995 0.31004
242 1 0.362372 0.265077 0.360628
243 1 0.359335 0.176061 0.498042
244 1 0.356308 0.190579 0.464921
245 1 0.365319 0.304246 0.314934
246 1 0.368326 0.277888 0.36581
247 1 0.365415 0.186968 0.496392
248 1 0.362333 0.198602 0.469105
249 1 0.371517 0.315083 0.321947
250 1 0.374392 0.284528 0.371334
251 1 0.371513 0.202586 0.510129
252 1 0.368572 0.212256 0.470899
253 1 0.377385 0.314296 0.32173
254 1 0.380535 0.288267 0.375039
255 1 0.377431 0.216828 0.524721
256 1 0.374523 0.228264 0.48459
257 1 0.383494 0.312381 0.319185
258 1 0.386544 0.286328 0.371665
259 1 0.383552 0.216669 0.519236
260 1 0.380499 0.231931 0.48779
261 1 0.389401 0.314855 0.316572
262 1 0.392544 0.29133 0.37252
263 1 0.389761 0.215966 0.5165
264 1 0.386691 0.230304 0.48381
265 1 0.395636 0.320939 0.319042
266 1 0.39861 0.29793 0.369686
267 1 0.395695 0.221353 0.517975
268 1 0.392765 0.236208 0.482267
269 1 0.401576 0.321526 0.317121
270 1 0.404626 0.302995 0.377227
271 1 0.401615 0.230521 0.52198
272 1 0.398641 0.240691 0.482155
273 1 0.407598 0.322647 0.333903
274 1 0.410551 0.305097 0.387692
275 1 0.407545 0.252747 0.537038
276 1 0.404614 0.257772 0.495811
277 1 0.413778 0.326399 0.337001
278 1 0.416833 0.302507 0.396644
279 1 0.413655 0.248453 0.543436
280 1 0.410656 0.265356 0.509479
281 1 0.419846 0.325911 0.342879
282 1 0.422861 0.294592 0.391057
283 1 0.419781 0.24123 0.544649
284 1 0.416752 0.253708 0.508807
285 1 0.425833 0.319172 0.338928
286 1 0.428781 0.294774 0.393746
287 1 0.425862 0.2305 0.545348
288 1 0.422872 0.245841 0.510955
289 1 0.43186 0.313924 0.336123
290 1 0.434788 0.29251 0.38938
291 1 0.432003 0.236514 0.545963
292 1 0.428929 0.247375 0.510269
293 1 0.43791 0.310258 0.335536
294 1 0.44097 0.291983 0.394429
295 1 0.437834 0.230172 0.541065
296 1 0.434922 0.246639 0.506546
297 1 0.443918 0.312619 0.343292
298 1 0.446885 0.293747 0.402947
299 1 0.443757 0.233573 0.551795
300 1 0.440822 0.247075 0.512349
301 1 0.449849 0.315541 0.350204
302 1 0.452904 0.296283 0.414319
303 1 0.449826 0.239359 0.560438
304 1 0.446809 0.243484 0.518142
305 1 0.455901 0.318764 0.363924
306 1 0.458754 0.303538 0.422044
307 1 0.45581 0.246872 0.574901
308 1 0.45289 0.252534 0.532316
309 1 0.462018 0.325579 0.37257
310 1 0.464876 0.312897 0.444306
311 1 0.46156 0.262582 0.590033
312 1 0.458746 0.265089 0.541087
313 1 0.467965 0.331345 0.397191
314 1 0.470672 0.314542 0.470153
315 1 0.467351 0.276584 0.619984
316 1 0.464564 0.276962 0.573062
317 1 0.473762 0.323336 0.415991
318 1 0.476625 0.311103 0.482844
319 1 0.473152 0.285147 0.640734
320 1 0.470291 0.289709 0.594714
321 1 0.479724 0.335981 0.440583
322 1 0.482403 0.336107 0.516827
323 1 0.479042 0.30049 0.665608
324 1 0.476085 0.289049 0.609392
325 1 0.485481 0.366443 0.49207
326 1 0.487909 0.402056 0.571453
327 1 0.484606 0.354377 0.693643
328 1 0.481903 0.32535 0.638345
329 1 0.490983 0.428414 0.551429
330 1 0.492957 0.473875 0.639706
331 1 0.489364 0.447729 0.758478
332 1 0.487226 0.402897 0.692549
333 1 0.496058 0.504871 0.622052
334 1 0.497673 0.579194 0.698091
335 1 0.493902 0.553627 0.823015
336 1 0.492073 0.49613 0.758043
337 1 0.500628 0.624115 0.668764
338 1 0.501856 0.718873 0.719708
339 1 0.498072 0.70233 0.850695
340 1 0.496538 0.613802 0.815258
341 1 0.504373 0.772533 0.673321
342 1 0.504494 0.8874 0.659236
343 1 0.500715 0.875802 0.800169
344 1 0.500288 0.769914 0.815817
345 1 0.505726 0.934897 0.556766
346 1 0.503635 0.978828 0.467778
347 1 0.500392 0.999844 0.629554
348 1 0.501826 0.947016 0.719269
349 1 0.504208 0.944796 0.342183
350 1 0.501675 0.909341 0.271269
351 1 0.498777 0.981038 0.420399
352 1 0.500618 1.00713 0.512628
353 1 0.501892 0.824325 0.18527
354 1 0.499467 0.754806 0.147004
355 1 0.496636 0.866903 0.255878
356 1 0.498611 0.931288 0.313633
357 1 0.499863 0.652604 0.0896287
358 1 0.497369 0.580944 0.0612954
359 1 0.494289 0.721966 0.125771
360 1 0.496326 0.787552 0.177504
361 1 0.497746 0.467408 0.0356994
362 1 0.495224 0.392892 0.0410903
363 1 0.492199 0.538166 0.0386002
364 1 0.494158 0.621167 0.0735514
365 1 0.495505 0.290224 0.0902462
366 1 0.493008 0.224562 0.141166
367 1 0.490355 0.343521 0.0260565
368 1 0.492278 0.429644 0.0168954
369 1 0.4933 0.173848 0.255246
370 1 0.490804 0.165138 0.339114
371 1 0.487848 0.211736 0.179325
372 1 0.489923 0.247969 0.0948567
373 1 0.491528 0.16568 0.466281
374 1 0.488994 0.174204 0.563921
375 1 0.485905 0.181484 0.395885
376 1 0.487745 0.184655 0.298356
377 1 0.489511 0.196873 0.683133
378 1 0.486918 0.222982 0.761251
379 1 0.48399 0.171975 0.610093
380 1 0.485968 0.172392 0.51604
381 1 0.487287 0.307128 0.844338
382 1 0.484942 0.38685 0.872371
383 1 0.481884 0.255277 0.802798
384 1 0.483741 0.195024 0.728083
385 1 0.485757 0.49975 0.863224
386 1 0.485487 0.550387 0.753123
387 1 0.481128 0.451985 0.754475
388 1 0.481552 0.364605 0.833032
389 1 0.487991 0.605116 0.692797
390 1 0.48885 0.59582 0.570619
391 1 0.484044 0.528322 0.561356
392 1 0.482879 0.514846 0.678032
393 1 0.491952 0.624512 0.529293
394 1 0.493468 0.587419 0.424439
395 1 0.488522 0.533681 0.384976
396 1 0.486617 0.555621 0.484804
397 1 0.49673 0.592666 0.406131
398 1 0.498744 0.535715 0.322497
399 1 0.494093 0.497862 0.256417
400 1 0.491588 0.534235 0.334443
401 1 0.502162 0.538539 0.320886
402 1 0.504443 0.46228 0.272676
403 1 0.499683 0.399586 0.209903
404 1 0.497306 0.475095 0.235227
405 1 0.507867 0.474868 0.275715
406 1 0.510597 0.408821 0.251847
407 1 0.506266 0.312046 0.234282
408 1 0.503031 0.372921 0.222178
409 1 0.514035 0.432656 0.25361
410 1 0.516621 0.36743 0.237122
411 1 0.512735 0.24138 0.227586
412 1 0.50967 0.298815 0.236676
413 1 0.519887 0.405967 0.23864
414 1 0.522682 0.340295 0.231104
415 1 0.519118 0.209521 0.219307
416 1 0.516035 0.254364 0.223886
417 1 0.525847 0.381366 0.234626
418 1 0.528821 0.320009 0.224511
419 1 0.525307 0.178504 0.212131
420 1 0.522341 0.224206 0.222699
421 1 0.532006 0.361172 0.232276
422 1 0.534932 0.303552 0.220101
423 1 0.531447 0.162099 0.198338
424 1 0.528493 0.204297 0.209772
425 1 0.538225 0.353331 0.21448
426 1 0.541108 0.293905 0.206597
427 1 0.537766 0.148002 0.19559
428 1 0.534629 0.184323 0.203042
429 1 0.544294 0.346449 0.210353
430 1 0.547187 0.289175 0.195342
431 1 0.543881 0.140239 0.182753
432 1 0.540906 0.176378 0.197529
433 1 0.550326 0.340385 0.206656
434 1 0.553289 0.285208 0.196867
435 1 0.550049 0.132504 0.165802
436 1 0.547068 0.169311 0.177875
437 1 0.556309 0.332751 0.203841
438 1 0.55928 0.274482 0.194024
439 1 0.556007 0.131777 0.165471
440 1 0.553047 0.167495 0.171101
441 1 0.562294 0.324199 0.21274
442 1 0.565295 0.268171 0.199417
443 1 0.562046 0.125249 0.166457
444 1 0.55903 0.16223 0.172904
445 1 0.568405 0.313885 0.209412
446 1 0.571315 0.260531 0.209145
447 1 0.568219 0.117058 0.17844
448 1 0.565243 0.152821 0.175761
449 1 0.574542 0.309235 0.216918
450 1 0.577512 0.254645 0.21605
451 1 0.574371 0.104984 0.190566
452 1 0.571293 0.143775 0.190196
453 1 0.580578 0.308234 0.226308
454 1 0.58339 0.249095 0.2159
455 1 0.580469 0.105932 0.185507
456 1 0.57742 0.139948 0.196452
457 1 0.586484 0.302051 0.233897
458 1 0.589527 0.247173 0.216692
459 1 0.586335 0.104732 0.181491
460 1 0.583337 0.137087 0.193942
461 1 0.592525 0.302961 0.222271
462 1 0.595506 0.242563 0.210099
463 1 0.592407 0.0978195 0.186015
464 1 0.589486 0.13411 0.190403
465 1 0.598407 0.28998 0.233945
466 1 0.6016 0.240324 0.21579
467 1 0.598467 0.0954464 0.18454
468 1 0.595439 0.129273 0.193656
469 1 0.604674 0.295068 0.230891
470 1 0.607735 0.239619 0.217861
471 1 0.604619 0.0897106 0.187776
472 1 0.60154 0.127124 0.18846
473 1 0.610714 0.291738 0.229603
474 1 0.613814 0.232439 0.223421
475 1 0.610711 0.092199 0.190352
476 1 0.607681 0.123787 0.194612
477 1 0.616915 0.286718 0.233321
478 1 0.619879 0.232545 0.232397
479 1 0.616751 0.0792789 0.201928
480 1 0.613766 0.118619 0.206843
481 1 0.622764 0.288281 0.241799
482 1 0.625794 0.234893 0.239669
483 1 0.622934 0.0824045 0.2025
484 1 0.619812 0.111343 0.204661
485 1 0.628798 0.291722 0.246856
486 1 0.631822 0.234761 0.239484
487 1 0.628923 0.0893659 0.206834
488 1 0.625869 0.119237 0.2133
489 1 0.634948 0.287644 0.24122
490 1 0.637934 0.229842 0.226876
491 1 0.634863 0.0854042 0.203758
492 1 0.631821 0.12299 0.214553
493 1 0.640958 0.285375 0.233057
494 1 0.644002 0.230228 0.2306
495 1 0.640926 0.0800466 0.198067
496 1 0.637976 0.115342 0.207018
497 1 0.647143 0.281285 0.240276
498 1 0.650067 0.228111 0.232005
499 1 0.646973 0.0777338 0.209609
500 1 0.643897 0.109998 0.213107
501 1 0.65307 0.279869 0.249629
502 1 0.656085 0.2223 0.24901
503 1 0.65303 0.074642 0.233532
504 1 0.650024 0.11097 0.21886
505 1 0.659129 0.277359 0.25523
506 1 0.662178 0.218132 0.253213
507 1 0.659044 0.0703273 0.243458
508 1 0.656054 0.105417 0.2501
509 1 0.665223 0.275849 0.252194
510 1 0.668238 0.223611 0.235166
511 1 0.665081 0.0699654 0.235481
512 1 0.662147 0.105573 0.248108
513 1 0.671236 0.278144 0.238244
514 1 0.674213 0.223905 0.247368
515 1 0.671243 0.0726573 0.229252
516 1 0.668155 0.106546 0.230464
517 1 0.67717 0.277409 0.257761
518 1 0.680091 0.225238 0.247256
519 1 0.677133 0.0765316 0.235893
520 1 0.674146 0.106699 0.236783
521 1 0.683134 0.278584 0.24751
522 1 0.686219 0.220829 0.244373
523 1 0.683047 0.0720253 0.248116
524 1 0.680159 0.111281 0.242237
525 1 0.689238 0.272711 0.236786
526 1 0.692146 0.214903 0.237506
527 1 0.689019 0.0620529 0.247081
528 1 0.686031 0.103151 0.247654
529 1 0.695172 0.265037 0.239356
530 1 0.698222 0.209541 0.234279
531 1 0.695053 0.0586066 0.246262
532 1 0.692043 0.0996411 0.252698
533 1 0.701141 0.263793 0.244219
534 1 0.704224 0.208597 0.251032
535 1 0.701081 0.0554584 0.238102
536 1 0.698025 0.0917497 0.237093
537 1 0.707081 0.259684 0.254855
538 1 0.710104 0.211812 0.259103
539 1 0.707205 0.0597267 0.249185
540 1 0.70414 0.0919567 0.244117
541 1 0.713151 0.263059 0.265538
542 1 0.716089 0.203265 0.268608
543 1 0.713101 0.0553028 0.25335
544 1 0.710137 0.0932219 0.249043
545 1 0.719173 0.257707 0.270492
546 1 0.722323 0.204303 0.270647
547 1 0.719154 0.0497651 0.270996
548 1 0.716093 0.0865936 0.266546
549 1 0.725355 0.258064 0.264606
550 1 0.728432 0.205772 0.253205
551 1 0.725189 0.0580382 0.258126
552 1 0.722121 0.089301 0.266554
553 1 0.731289 0.257094 0.244786
554 1 0.734395 0.201813 0.243682
555 1 0.731233 0.0566788 0.250817
556 1 0.728234 0.0903527 0.251916
557 1 0.737336 0.260629 0.244303
558 1 0.740355 0.2025 0.244879
559 1 0.737367 0.0538358 0.253889
560 1 0.73429 0.0849833 0.252548
561 1 0.74349 0.259719 0.241432
562 1 0.746517 0.202412 0.247428
563 1 0.743532 0.0491494 0.253072
564 1 0.740527 0.0871285 0.250598
565 1 0.749615 0.257643 0.236746
566 1 0.752592 0.20665 0.247935
567 1 0.749435 0.0551026 0.250507
568 1 0.746449 0.0857723 0.251937
569 1 0.755645 0.264344 0.246365
570 1 0.758632 0.212282 0.241237
571 1 0.755613 0.0619022 0.262484
572 1 0.752517 0.0925281 0.254096
573 1 0.761588 0.26679 0.236386
574 1 0.764548 0.211763 0.245471
575 1 0.761548 0.0604664 0.259593
576 1 0.75861 0.0966368 0.25162
577 1 0.767659 0.259157 0.246679
578 1 0.770675 0.199976 0.241602
579 1 0.767566 0.0589913 0.255193
580 1 0.764562 0.0935675 0.251821
581 1 0.773652 0.254581 0.236011
582 1 0.776702 0.204717 0.250183
583 1 0.773646 0.0488345 0.250604
584 1 0.770651 0.0849552 0.250295
585 1 0.779779 0.255778 0.243417
586 1 0.782748 0.197033 0.250074
587 1 0.77963 0.0509025 0.272277
588 1 0.776659 0.0877841 0.256926
589 1 0.785721 0.253281 0.24206
590 1 0.788738 0.196373 0.255339
591 1 0.785573 0.0453549 0.294044
592 1 0.782574 0.0834856 0.274675
593 1 0.791816 0.250891 0.250659
594 1 0.794874 0.194965 0.266972
595 1 0.791717 0.0493427 0.293588
596 1 0.78859 0.08006 0.283023
597 1 0.797908 0.251896 0.25684
598 1 0.800787 0.196202 0.263785
599 1 0.797907 0.0459125 0.295749
600 1 0.794879 0.0809633 0.286878
601 1 0.80388 0.247829 0.263509
602 1 0.806877 0.194618 0.263477
603 1 0.803854 0.0406517 0.287218
604 1 0.80097 0.0797412 0.27939
605 1 0.809841 0.247561 0.264256
606 1 0.812774 0.190612 0.275071
607 1 0.809721 0.0387719 0.29256
608 1 0.806793 0.076398 0.285667
609 1 0.815853 0.239669 0.263058
610 1 0.818806 0.188579 0.266509
611 1 0.815728 0.042134 0.288661
612 1 0.812797 0.0751294 0.285994
613 1 0.821925 0.24179 0.259858
614 1 0.824959 0.186739 0.259877
615 1 0.821866 0.0391562 0.28614
616 1 0.818813 0.0717105 0.283324
617 1 0.828059 0.240437 0.253453
618 1 0.830946 0.182381 0.254866
619 1 0.827824 0.0328844 0.272458
620 1 0.824898 0.0684881 0.274261
621 1 0.833938 0.235733 0.253602
622 1 0.83694 0.179433 0.257417
623 1 0.833893 0.032279 0.261142
624 1 0.830823 0.0662874 0.25732
625 1 0.840057 0.238408 0.265581
626 1 0.843142 0.183085 0.280135
627 1 0.839905 0.027309 0.282755
628 1 0.836928 0.0636248 0.270482
629 1 0.846262 0.232383 0.275205
630 1 0.849389 0.179217 0.282619
631 1 0.846133 0.027845 0.286519
632 1 0.843001 0.0636084 0.283245
633 1 0.852474 0.234911 0.270333
634 1 0.855433 0.179123 0.279697
635 1 0.852215 0.0263953 0.288171
636 1 0.849141 0.0618128 0.283843
637 1 0.858449 0.230493 0.277387
638 1 0.86135 0.173793 0.282184
639 1 0.858412 0.0213192 0.288639
640 1 0.855311 0.0565017 0.28232
641 1 0.864369 0.222906 0.281568
642 1 0.867466 0.174498 0.28426
643 1 0.86439 0.020173 0.299298
644 1 0.861338 0.0560859 0.296182
645 1 0.870456 0.229782 0.281238
646 1 0.873577 0.175577 0.288438
647 1 0.870443 0.0231276 0.286344
648 1 0.867481 0.0508703 0.29306
649 1 0.876538 0.22883 0.289934
650 1 0.8796 0.175275 0.288528
651 1 0.876557 0.0235777 0.299865
652 1 0.8735 0.058429 0.289271
653 1 0.882597 0.227586 0.27858
654 1 0.885546 0.17309 0.27582
655 1 0.882535 0.0202431 0.299386
656 1 0.87957 0.0568414 0.302093
657 1 0.888541 0.224519 0.273133
658 1 0.891648 0.171229 0.282847
659 1 0.888642 0.0204993 0.278062
660 1 0.885557 0.054454 0.280182
661 1 0.894721 0.223088 0.277542
662 1 0.897702 0.168768 0.280565
663 1 0.894695 0.0223952 0.29313
664 1 0.891641 0.0570237 0.28686
665 1 0.900743 0.218974 0.272506
666 1 0.903701 0.161303 0.272902
667 1 0.900802 0.0196308 0.289013
668 1 0.897853 0.0519003 0.28294
669 1 0.906788 0.219227 0.267361
670 1 0.909745 0.164854 0.271381
671 1 0.906951 0.0135286 0.28485
672 1 0.903956 0.0437095 0.283674
673 1 0.91291 0.215627 0.284119
674 1 0.915887 0.15683 0.290719
675 1 0.912932 0.01288 0.272509
676 1 0.909981 0.0499387 0.273184
677 1 0.918981 0.214374 0.297263
678 1 0.922151 0.161564 0.300657
679 1 0.91897 0.00873356 0.279453
680 1 0.915986 0.0423162 0.272596
681 1 0.925067 0.219845 0.297038
682 1 0.92803 0.164949 0.294499
683 1 0.924889 0.00936803 0.295425
684 1 0.921926 0.048185 0.293963
685 1 0.930973 0.22232 0.296251
686 1 0.933926 0.166181 0.298292
687 1 0.930969 0.00955855 0.30871
688 1 0.927907 0.045631 0.301603
689 1 0.937017 0.220395 0.292291
690 1 0.940055 0.166016 0.297061
691 1 0.936964 0.0136946 0.310493
692 1 0.933876 0.0487036 0.309586
693 1 0.943036 0.219313 0.295662
694 1 0.94609 0.168618 0.302947
695 1 0.943121 0.0158304 0.315085
696 1 0.940021 0.0487338 0.308663
697 1 0.949141 0.221576 0.291758
698 1 0.95214 0.166953 0.285963
699 1 0.949083 0.0172442 0.306985
700 1 0.94607 0.0530816 0.313477
701 1 0.955134 0.226121 0.282237
702 1 0.95812 0.171772 0.290459
703 1 0.955185 0.0166403 0.298464
704 1 0.95223 0.0467316 0.294025
705 1 0.961183 0.228475 0.296951
706 1 0.964166 0.17286 0.308635
707 1 0.961107 0.0207441 0.300634
708 1 0.958167 0.0528512 0.295212
709 1 0.967163 0.227124 0.314291
710 1 0.970125 0.170744 0.308976
711 1 0.967134 0.0193101 0.305019
712 1 0.964137 0.0561765 0.30125
713 1 0.9731 0.22427 0.310268
714 1 0.976124 0.165979 0.298409
715 1 0.973225 0.0182643 0.296696
716 1 0.970127 0.0559841 0.299894
717 1 0.979164 0.221986 0.307684
718 1 0.982112 0.168399 0.308065
719 1 0.979261 0.0128506 0.295196
720 1 0.976265 0.0501562 0.292864
721 1 0.985179 0.222649 0.305132
722 1 0.988263 0.168574 0.30512
723 1 0.985279 0.0169353 0.303806
724 1 0.982243 0.051386 0.305417
725 1 0.991248 0.223437 0.307529
726 1 0.994243 0.169561 0.308154
727 1 0.991338 0.0213245 0.304047
728 1 0.988325 0.0525986 0.301
729 1 0.00877863 0.532225 0.311558
730 1 0.0118264 0.498693 0.314972
731 1 0.0087985 0.330806 0.309466
732 1 0.00580525 0.386469 0.30802
733 1 0.0149248 0.533872 0.305475
734 1 0.0179182 0.494215 0.299735
735 1 0.0148363 0.328665 0.313422
736 1 0.0118415 0.382348 0.312478
737 1 0.0208374 0.527859 0.287473
738 1 0.0239368 0.497761 0.287679
739 1 0.0206825 0.325846 0.305867
740 1 0.0178597 0.38085 0.309324
741 1 0.0268676 0.532485 0.275362
742 1 0.0298419 0.4975 0.273076
743 1 0.0267492 0.327234 0.294487
744 1 0.0237645 0.379997 0.296218
745 1 0.0329093 0.533845 0.263755
746 1 0.035915 0.498379 0.268354
747 1 0.0329016 0.332503 0.298648
748 1 0.0298638 0.383961 0.288959
749 1 0.0389856 0.533587 0.27539
750 1 0.0420048 0.502628 0.274568
751 1 0.0389635 0.333578 0.291962
752 1 0.0359081 0.387684 0.287133
753 1 0.0449639 0.543263 0.270362
754 1 0.0481026 0.504894 0.279121
755 1 0.045077 0.33151 0.285794
756 1 0.0421196 0.388281 0.282918
757 1 0.0510449 0.537379 0.270842
758 1 0.054092 0.506284 0.265293
759 1 0.0510355 0.334236 0.284233
760 1 0.0480602 0.387246 0.280904
761 1 0.0571948 0.543397 0.257081
762 1 0.0601888 0.50406 0.263944
763 1 0.0571421 0.333571 0.283392
764 1 0.0541043 0.390474 0.273512
765 1 0.0631577 0.540313 0.254418
766 1 0.0662067 0.506871 0.256605
767 1 0.0632235 0.33503 0.284726
768 1 0.0602739 0.388308 0.28132
769 1 0.0691198 0.544751 0.256894
770 1 0.0722044 0.511092 0.258976
771 1 0.0691485 0.339846 0.28427
772 1 0.0661233 0.388109 0.271418
773 1 0.0751965 0.543003 0.255269
774 1 0.0782141 0.51233 0.251553
775 1 0.0751817 0.342866 0.281482
776 1 0.0720485 0.396007 0.278611
777 1 0.08128 0.54613 0.245748
778 1 0.0842841 0.511596 0.24739
779 1 0.0811191 0.342778 0.28631
780 1 0.0781697 0.396371 0.275863
781 1 0.0873388 0.548692 0.239378
782 1 0.0903793 0.514782 0.254502
783 1 0.0874108 0.348891 0.28463
784 1 0.0842315 0.399485 0.274295
785 1 0.0933615 0.558006 0.250817
786 1 0.096337 0.521206 0.250281
787 1 0.0933663 0.350339 0.282997
788 1 0.0903646 0.400615 0.274325
789 1 0.0994524 0.548286 0.237542
790 1 0.102499 0.51442 0.236954
791 1 0.0992975 0.352116 0.288873
792 1 0.0963121 0.40584 0.277284
793 1 0.105485 0.548141 0.218797
794 1 0.108622 0.514547 0.224776
795 1 0.105512 0.351233 0.276468
796 1 0.102506 0.404433 0.271557
797 1 0.111606 0.545846 0.203612
798 1 0.11464 0.511338 0.201792
799 1 0.111595 0.351536 0.265046
800 1 0.10853 0.402752 0.255576
801 1 0.117739 0.54007 0.185117
802 1 0.120679 0.510403 0.200846
803 1 0.117736 0.345059 0.270152
804 1 0.114665 0.402028 0.243443
805 1 0.12369 0.545476 0.185967
806 1 0.126742 0.509964 0.206443
807 1 0.123686 0.346656 0.267598
808 1 0.120716 0.396616 0.244188
809 1 0.129697 0.546843 0.196374
810 1 0.132707 0.515066 0.212941
811 1 0.129794 0.354637 0.280835
812 1 0.126738 0.40182 0.254779
813 1 0.135789 0.54529 0.20241
814 1 0.138783 0.513173 0.208374
815 1 0.135832 0.355186 0.274706
816 1 0.132781 0.405509 0.260423
817 1 0.141773 0.541792 0.193682
818 1 0.144709 0.510959 0.205369
819 1 0.141806 0.35201 0.27262
820 1 0.138759 0.40201 0.245845
821 1 0.147641 0.53983 0.193009
822 1 0.150749 0.512082 0.20983
823 1 0.147736 0.354378 0.282714
824 1 0.144776 0.403314 0.257632
825 1 0.153818 0.54332 0.192511
826 1 0.156964 0.514078 0.20825
827 1 0.153773 0.355402 0.283475
828 1 0.150821 0.406613 0.260124
829 1 0.159982 0.540301 0.185649
830 1 0.162998 0.506399 0.19755
831 1 0.159847 0.35171 0.275135
832 1 0.157054 0.407425 0.260688
833 1 0.166028 0.537227 0.18443
834 1 0.169039 0.504898 0.196886
835 1 0.166023 0.354512 0.284237
836 1 0.162944 0.397406 0.255182
837 1 0.172076 0.536067 0.172244
838 1 0.175026 0.502706 0.192856
839 1 0.172128 0.356096 0.283781
840 1 0.16902 0.404417 0.256863
841 1 0.178002 0.532709 0.17274
842 1 0.181028 0.504078 0.198379
843 1 0.178252 0.355744 0.290082
844 1 0.175237 0.398727 0.257968
845 1 0.184088 0.530989 0.182274
846 1 0.187128 0.502623 0.197341
847 1 0.184229 0.354553 0.291353
848 1 0.181291 0.403547 0.264301
849 1 0.190165 0.532842 0.168209
850 1 0.193159 0.4971 0.168662
851 1 0.190135 0.352102 0.275225
852 1 0.187259 0.397968 0.254349
853 1 0.196188 0.519595 0.135875
854 1 0.199137 0.487556 0.150514
855 1 0.196141 0.345478 0.261809
856 1 0.193164 0.398376 0.237798
857 1 0.202181 0.519127 0.129047
858 1 0.205329 0.493173 0.147524
859 1 0.202285 0.348236 0.255336
860 1 0.199131 0.39139 0.22562
861 1 0.208429 0.523327 0.131444
862 1 0.21138 0.493176 0.158404
863 1 0.208344 0.3571 0.264126
864 1 0.205372 0.398599 0.227026
865 1 0.214357 0.519764 0.132041
866 1 0.217399 0.495433 0.149454
867 1 0.214287 0.361362 0.265251
868 1 0.211398 0.399678 0.230637
869 1 0.220388 0.52377 0.131852
870 1 0.223486 0.493083 0.151128
871 1 0.220462 0.353496 0.259673
872 1 0.217428 0.400944 0.226685
873 1 0.226472 0.520915 0.131375
874 1 0.229433 0.495605 0.15394
875 1 0.226485 0.353545 0.257633
876 1 0.223441 0.397279 0.221933
877 1 0.232354 0.528434 0.135232
878 1 0.235446 0.49905 0.149663
879 1 0.232562 0.355545 0.262393
880 1 0.229506 0.401513 0.224204
881 1 0.238427 0.526576 0.125132
882 1 0.24146 0.498566 0.141471
883 1 0.238557 0.35853 0.258008
884 1 0.235493 0.399048 0.223131
885 1 0.244419 0.520869 0.105539
886 1 0.247527 0.500474 0.132026
887 1 0.244501 0.358517 0.247052
888 1 0.241574 0.402951 0.21625
889 1 0.250547 0.522547 0.100783
890 1 0.25354 0.505571 0.128884
891 1 0.25055 0.366418 0.244288
892 1 0.24745 0.410845 0.212091
893 1 0.256628 0.528005 0.0988992
894 1 0.259553 0.501713 0.11718
895 1 0.25659 0.365346 0.238095
896 1 0.253657 0.409168 0.204119
897 1 0.262614 0.524393 0.0963542
898 1 0.265605 0.497438 0.110935
899 1 0.262681 0.361012 0.233953
900 1 0.259557 0.410191 0.20092
901 1 0.268613 0.525373 0.0889817
902 1 0.271561 0.499848 0.115752
903 1 0.268584 0.365282 0.23205
904 1 0.265584 0.405768 0.194427
905 1 0.274616 0.53092 0.0989275
906 1 0.277618 0.5012 0.113675