ITEM: TIMESTEP
372000
ITEM: NUMBER OF ATOMS
1456
ITEM: BOX BOUNDS ss ss ss
-0.0399323 456.305
8.4284 18.369
7.16507 18.3962
ITEM: ATOMS id type xs ys zs
1 1 0.00281056 0.396408 0.249823
2 1 0.00547762 0.323397 0.249819
3 1 0.00277582 0.111524 0.249811
4 1 9.64257e-05 0.180503 0.249826
5 1 0.0027985 0.824186 0.249812
6 1 0.0054777 0.753277 0.249867
7 1 0.00276187 0.538673 0.24982
8 1 9.82094e-05 0.609871 0.24982
9 1 0.00850458 0.387629 0.250248
10 1 0.0113986 0.315538 0.249585
11 1 0.00852695 0.123413 0.247369
12 1 0.00564737 0.166678 0.249049
13 1 0.0143974 0.384038 0.251784
14 1 0.0173594 0.316832 0.255744
15 1 0.0145023 0.124468 0.246792
16 1 0.0114177 0.166347 0.246713
17 1 0.0203676 0.382698 0.25683
18 1 0.0234688 0.314918 0.256222
19 1 0.0205228 0.124995 0.25389
20 1 0.0175073 0.1652 0.249407
21 1 0.0263578 0.380124 0.256781
22 1 0.0294196 0.313884 0.266182
23 1 0.0265994 0.124006 0.251168
24 1 0.0234845 0.164949 0.249961
25 1 0.0324043 0.386854 0.255448
26 1 0.0354807 0.317657 0.252559
27 1 0.0325824 0.125732 0.27222
28 1 0.0296354 0.166147 0.271699
29 1 0.0384542 0.385648 0.257546
30 1 0.0414881 0.321038 0.250575
31 1 0.0385334 0.126034 0.263304
32 1 0.0355145 0.172017 0.259744
33 1 0.0446686 0.392588 0.242543
34 1 0.047604 0.320354 0.245468
35 1 0.0446168 0.124698 0.260208
36 1 0.0416671 0.168257 0.265174
37 1 0.0504911 0.392676 0.246739
38 1 0.0534633 0.323255 0.258761
39 1 0.0506015 0.127081 0.259606
40 1 0.0475949 0.172175 0.258202
41 1 0.0565734 0.398479 0.258317
42 1 0.0595638 0.326014 0.262868
43 1 0.0565502 0.130112 0.271116
44 1 0.0535894 0.169072 0.265392
45 1 0.0625297 0.399528 0.256553
46 1 0.0655207 0.331409 0.26246
47 1 0.0625421 0.133119 0.272079
48 1 0.0595204 0.174393 0.269781
49 1 0.0684652 0.397548 0.253906
50 1 0.0713282 0.33318 0.26428
51 1 0.0684898 0.142155 0.277347
52 1 0.065454 0.183181 0.268036
53 1 0.0744103 0.394809 0.250508
54 1 0.077338 0.320281 0.264624
55 1 0.0743917 0.136295 0.297063
56 1 0.0714093 0.186171 0.284125
57 1 0.080364 0.388597 0.255957
58 1 0.0833569 0.319591 0.270996
59 1 0.080429 0.134821 0.302989
60 1 0.07748 0.178391 0.292095
61 1 0.0863608 0.396104 0.265964
62 1 0.0893817 0.320378 0.278339
63 1 0.086424 0.133061 0.307523
64 1 0.0834596 0.171232 0.293741
65 1 0.0924017 0.388465 0.259483
66 1 0.0953364 0.319295 0.279914
67 1 0.0924329 0.132889 0.327997
68 1 0.0893834 0.168043 0.304216
69 1 0.0984618 0.381069 0.263111
70 1 0.101436 0.316898 0.276948
71 1 0.0984614 0.132376 0.334916
72 1 0.0954477 0.176438 0.321834
73 1 0.104395 0.382507 0.261195
74 1 0.107339 0.319223 0.277059
75 1 0.104507 0.131124 0.324822
76 1 0.101569 0.17025 0.320584
77 1 0.110352 0.38831 0.254861
78 1 0.113383 0.32191 0.265368
79 1 0.110456 0.12594 0.314191
80 1 0.10749 0.173216 0.307209
81 1 0.116309 0.391243 0.254002
82 1 0.119322 0.327053 0.273623
83 1 0.116337 0.131373 0.315591
84 1 0.113362 0.173893 0.302417
85 1 0.122386 0.394859 0.263749
86 1 0.125375 0.329283 0.275601
87 1 0.122269 0.133393 0.303024
88 1 0.119326 0.176119 0.29856
89 1 0.12842 0.395885 0.255069
90 1 0.131439 0.323131 0.266277
91 1 0.128296 0.137222 0.302685
92 1 0.125224 0.183569 0.297843
93 1 0.134446 0.397953 0.25916
94 1 0.137505 0.330111 0.276394
95 1 0.134365 0.138833 0.310549
96 1 0.131273 0.176502 0.297794
97 1 0.140517 0.394251 0.263093
98 1 0.143496 0.32456 0.269192
99 1 0.140472 0.136758 0.305883
100 1 0.137383 0.181453 0.305505
101 1 0.146416 0.388807 0.246844
102 1 0.149276 0.321375 0.26502
103 1 0.1464 0.133821 0.303776
104 1 0.143444 0.180119 0.296412
105 1 0.152273 0.389789 0.243613
106 1 0.155297 0.32017 0.254485
107 1 0.152277 0.137167 0.312199
108 1 0.149312 0.176209 0.298112
109 1 0.158352 0.385087 0.237043
110 1 0.161244 0.320683 0.256409
111 1 0.158331 0.133327 0.308341
112 1 0.155375 0.169398 0.295531
113 1 0.164325 0.38605 0.242296
114 1 0.167349 0.321307 0.270014
115 1 0.164249 0.13644 0.326158
116 1 0.161265 0.175616 0.300423
117 1 0.17031 0.383171 0.249146
118 1 0.173406 0.319016 0.267263
119 1 0.170268 0.137763 0.323199
120 1 0.167206 0.17494 0.309184
121 1 0.176339 0.380721 0.251475
122 1 0.179312 0.311026 0.265864
123 1 0.176359 0.135379 0.313216
124 1 0.173342 0.177921 0.308648
125 1 0.182298 0.381257 0.244986
126 1 0.185425 0.31753 0.267855
127 1 0.182415 0.125083 0.299809
128 1 0.179449 0.165018 0.295931
129 1 0.188441 0.389353 0.255075
130 1 0.191288 0.322995 0.272975
131 1 0.188492 0.128811 0.304035
132 1 0.185453 0.171712 0.295714
133 1 0.194425 0.384641 0.244721
134 1 0.197383 0.315946 0.259616
135 1 0.194363 0.134845 0.310922
136 1 0.191381 0.172736 0.308019
137 1 0.200511 0.385029 0.243972
138 1 0.203396 0.327455 0.265329
139 1 0.200461 0.132938 0.313594
140 1 0.197434 0.176914 0.302186
141 1 0.206519 0.396279 0.240368
142 1 0.209573 0.334921 0.264718
143 1 0.206623 0.144235 0.312105
144 1 0.203518 0.17528 0.301778
145 1 0.212498 0.401922 0.246595
146 1 0.215518 0.335593 0.263632
147 1 0.212546 0.153256 0.312362
148 1 0.20954 0.185413 0.298578
149 1 0.218559 0.397618 0.240261
150 1 0.221683 0.333422 0.258752
151 1 0.218652 0.154497 0.314554
152 1 0.215568 0.192321 0.300798
153 1 0.224502 0.404545 0.236028
154 1 0.227565 0.338409 0.263125
155 1 0.224561 0.151516 0.320657
156 1 0.221608 0.192777 0.30755
157 1 0.230544 0.409947 0.251735
158 1 0.233488 0.340126 0.268934
159 1 0.230579 0.15241 0.314534
160 1 0.227584 0.196688 0.309311
161 1 0.236547 0.404686 0.24442
162 1 0.239648 0.344575 0.267678
163 1 0.236475 0.158108 0.31716
164 1 0.233551 0.19441 0.30446
165 1 0.242686 0.400569 0.25133
166 1 0.245656 0.337924 0.276826
167 1 0.242572 0.166764 0.335237
168 1 0.23952 0.202507 0.313748
169 1 0.248714 0.395949 0.249103
170 1 0.251758 0.327836 0.277887
171 1 0.248634 0.156169 0.343708
172 1 0.245561 0.201001 0.324219
173 1 0.254774 0.393208 0.250839
174 1 0.257764 0.32512 0.270195
175 1 0.254797 0.14376 0.339944
176 1 0.251719 0.187461 0.325675
177 1 0.260721 0.390628 0.248085
178 1 0.263724 0.327088 0.279992
179 1 0.260989 0.146955 0.344448
180 1 0.257834 0.182982 0.330613
181 1 0.266739 0.389321 0.256786
182 1 0.269975 0.338338 0.29044
183 1 0.266896 0.159406 0.362072
184 1 0.263912 0.190037 0.337701
185 1 0.272934 0.400357 0.254591
186 1 0.275913 0.345052 0.276968
187 1 0.273026 0.167101 0.358657
188 1 0.269868 0.206472 0.348541
189 1 0.27901 0.405848 0.248994
190 1 0.282014 0.34785 0.28146
191 1 0.278928 0.170632 0.365427
192 1 0.275864 0.211475 0.340883
193 1 0.284999 0.405879 0.2544
194 1 0.288007 0.343615 0.287562
195 1 0.284948 0.177085 0.361761
196 1 0.281921 0.213521 0.340517
197 1 0.290968 0.415762 0.267739
198 1 0.294064 0.353892 0.298071
199 1 0.291097 0.179385 0.364918
200 1 0.288029 0.211332 0.349195
201 1 0.297015 0.416896 0.269885
202 1 0.300106 0.356512 0.295851
203 1 0.29698 0.185928 0.382973
204 1 0.294021 0.220891 0.36079
205 1 0.303117 0.415676 0.266912
206 1 0.306095 0.351935 0.296706
207 1 0.303127 0.186792 0.382551
208 1 0.299929 0.220879 0.361525
209 1 0.309215 0.405251 0.262291
210 1 0.312133 0.349494 0.302832
211 1 0.309092 0.178603 0.379293
212 1 0.306176 0.219955 0.359071
213 1 0.315209 0.420498 0.281382
214 1 0.318213 0.357898 0.30496
215 1 0.315056 0.182728 0.386518
216 1 0.312011 0.219758 0.365083
217 1 0.321187 0.418503 0.277397
218 1 0.32408 0.354793 0.302589
219 1 0.321003 0.18313 0.38318
220 1 0.318019 0.220303 0.362123
221 1 0.327077 0.41454 0.280059
222 1 0.330318 0.356822 0.314442
223 1 0.327038 0.184747 0.397499
224 1 0.324083 0.221889 0.364303
225 1 0.333175 0.418789 0.287548
226 1 0.336138 0.353889 0.324986
227 1 0.333089 0.186609 0.408117
228 1 0.330029 0.227395 0.384379
229 1 0.339352 0.411604 0.289541
230 1 0.342313 0.352064 0.321729
231 1 0.339082 0.194582 0.42349
232 1 0.33609 0.227788 0.39591
233 1 0.345371 0.402369 0.285748
234 1 0.348312 0.353296 0.322099
235 1 0.345109 0.18915 0.421859
236 1 0.342089 0.2286 0.401027
237 1 0.351205 0.407853 0.291446
238 1 0.354168 0.359526 0.3287
239 1 0.351258 0.198019 0.428218
240 1 0.348166 0.223758 0.398402
241 1 0.357148 0.415733 0.292321
242 1 0.360173 0.362839 0.328766
243 1 0.357236 0.207045 0.435406
244 1 0.354231 0.237365 0.410632
245 1 0.363286 0.419904 0.291535
246 1 0.366229 0.353766 0.32089
247 1 0.363257 0.194085 0.4206
248 1 0.3603 0.237497 0.408339
249 1 0.3692 0.408716 0.283397
250 1 0.372218 0.36458 0.327638
251 1 0.369373 0.194674 0.425308
252 1 0.366226 0.227713 0.393209
253 1 0.375206 0.414938 0.28275
254 1 0.378234 0.363769 0.326355
255 1 0.37536 0.215088 0.436038
256 1 0.37237 0.242049 0.411733
257 1 0.381259 0.412909 0.280738
258 1 0.384347 0.36882 0.321196
259 1 0.38125 0.222243 0.43898
260 1 0.378246 0.254832 0.412496
261 1 0.387211 0.424722 0.277569
262 1 0.390236 0.363044 0.30706
263 1 0.387331 0.223057 0.43312
264 1 0.384302 0.255537 0.412269
265 1 0.393178 0.416309 0.270282
266 1 0.396173 0.363581 0.307969
267 1 0.393319 0.211912 0.419196
268 1 0.390378 0.253754 0.396294
269 1 0.399044 0.422341 0.272397
270 1 0.402097 0.372815 0.307157
271 1 0.399232 0.211472 0.406145
272 1 0.396219 0.244534 0.389074
273 1 0.404903 0.424607 0.262615
274 1 0.408105 0.378896 0.300841
275 1 0.405124 0.22615 0.403713
276 1 0.402151 0.253015 0.380133
277 1 0.411063 0.426685 0.261814
278 1 0.414052 0.3742 0.303437
279 1 0.410978 0.235187 0.416404
280 1 0.408115 0.260148 0.389154
281 1 0.417049 0.411968 0.255615
282 1 0.420112 0.362059 0.299813
283 1 0.416972 0.227204 0.424266
284 1 0.414098 0.265241 0.398858
285 1 0.423123 0.41068 0.261681
286 1 0.426165 0.356438 0.300742
287 1 0.422997 0.216308 0.421812
288 1 0.420013 0.250324 0.397087
289 1 0.429097 0.411718 0.262735
290 1 0.432202 0.361823 0.304802
291 1 0.429078 0.222541 0.423908
292 1 0.426132 0.256739 0.399611
293 1 0.435178 0.415747 0.266737
294 1 0.438143 0.360064 0.309566
295 1 0.43499 0.209711 0.412254
296 1 0.432031 0.247526 0.392238
297 1 0.441215 0.413557 0.278469
298 1 0.444259 0.352445 0.315752
299 1 0.441046 0.205324 0.418872
300 1 0.438052 0.23984 0.389911
301 1 0.44734 0.39588 0.272921
302 1 0.450259 0.338358 0.319341
303 1 0.446961 0.195685 0.420619
304 1 0.44406 0.235379 0.39659
305 1 0.453303 0.396195 0.292524
306 1 0.456184 0.339748 0.342195
307 1 0.45307 0.189774 0.439571
308 1 0.450022 0.2256 0.405428
309 1 0.459314 0.406397 0.315034
310 1 0.462152 0.358723 0.364131
311 1 0.458896 0.197252 0.460347
312 1 0.456027 0.226345 0.423362
313 1 0.465197 0.4037 0.319197
314 1 0.468115 0.341812 0.357996
315 1 0.464863 0.197712 0.464711
316 1 0.461885 0.238379 0.440564
317 1 0.471158 0.384285 0.312952
318 1 0.473919 0.330932 0.367776
319 1 0.470721 0.190064 0.482305
320 1 0.46787 0.22464 0.448827
321 1 0.477037 0.37965 0.335729
322 1 0.479662 0.33778 0.391704
323 1 0.476454 0.196106 0.502391
324 1 0.473675 0.220503 0.459819
325 1 0.482761 0.370178 0.361836
326 1 0.485522 0.328128 0.413395
327 1 0.482247 0.181115 0.511417
328 1 0.479389 0.221801 0.47911
329 1 0.488648 0.370141 0.398959
330 1 0.491096 0.338764 0.481765
331 1 0.487992 0.199159 0.542336
332 1 0.485198 0.217858 0.496472
333 1 0.494307 0.376652 0.483829
334 1 0.496437 0.374554 0.584483
335 1 0.492816 0.255025 0.655733
336 1 0.490609 0.250739 0.573915
337 1 0.499383 0.417154 0.59294
338 1 0.501008 0.452673 0.696224
339 1 0.497252 0.34593 0.776408
340 1 0.495243 0.312742 0.694059
341 1 0.503977 0.500925 0.697397
342 1 0.50511 0.577252 0.802354
343 1 0.501275 0.486432 0.902957
344 1 0.499653 0.424179 0.813734
345 1 0.507379 0.672022 0.782022
346 1 0.507309 0.818574 0.835935
347 1 0.50381 0.71578 0.95816
348 1 0.503437 0.579752 0.916687
349 1 0.508233 0.927216 0.745897
350 1 0.505919 0.993887 0.67706
351 1 0.503149 0.935258 0.851933
352 1 0.504641 0.841664 0.911981
353 1 0.506168 1.01429 0.546755
354 1 0.503625 0.975733 0.463223
355 1 0.500851 0.98746 0.641277
356 1 0.502891 0.991773 0.736689
357 1 0.504138 0.91927 0.344068
358 1 0.50171 0.855683 0.267147
359 1 0.498793 0.905643 0.430041
360 1 0.500637 0.960357 0.518095
361 1 0.502084 0.778346 0.159491
362 1 0.499587 0.701101 0.0906655
363 1 0.496698 0.810548 0.228591
364 1 0.498641 0.862216 0.309471
365 1 0.500008 0.575667 0.0165358
366 1 0.497428 0.483957 -0.0151312
367 1 0.494574 0.658181 0.0473311
368 1 0.49646 0.738108 0.114878
369 1 0.497619 0.341784 0.0164714
370 1 0.495215 0.268796 0.0799053
371 1 0.492341 0.423743 -0.00596333
372 1 0.494285 0.532731 -0.0131602
373 1 0.495496 0.173625 0.188445
374 1 0.493045 0.125212 0.264785
375 1 0.490217 0.227189 0.133521
376 1 0.492004 0.303484 0.0543274
377 1 0.493469 0.066664 0.388908
378 1 0.491145 0.0373866 0.479628
379 1 0.488075 0.088207 0.326014
380 1 0.489895 0.143518 0.232875
381 1 0.491408 0.0434205 0.615045
382 1 0.489043 0.0900227 0.701628
383 1 0.485973 0.0102644 0.540733
384 1 0.487952 0.0223728 0.441583
385 1 0.489615 0.207877 0.782276
386 1 0.488915 0.342192 0.733973
387 1 0.48497 0.215561 0.682793
388 1 0.48567 0.0718145 0.656078
389 1 0.491169 0.44714 0.721431
390 1 0.491824 0.521129 0.613496
391 1 0.487347 0.457232 0.565515
392 1 0.486388 0.353805 0.65353
393 1 0.494872 0.575099 0.584464
394 1 0.496364 0.589263 0.464995
395 1 0.491479 0.577574 0.411471
396 1 0.489776 0.538312 0.515396
397 1 0.499632 0.605972 0.453573
398 1 0.501737 0.582527 0.35167
399 1 0.497038 0.593943 0.276161
400 1 0.4945 0.604615 0.363916
401 1 0.505134 0.571343 0.349162
402 1 0.507897 0.51506 0.275217
403 1 0.503333 0.491349 0.187011
404 1 0.500487 0.5646 0.231533
405 1 0.511138 0.524848 0.284035
406 1 0.513885 0.457883 0.2256
407 1 0.509793 0.338593 0.16048
408 1 0.506426 0.432506 0.18663
409 1 0.517211 0.496681 0.246362
410 1 0.520054 0.420157 0.215164
411 1 0.516121 0.276645 0.138781
412 1 0.513126 0.329988 0.162424
413 1 0.523211 0.467513 0.235087
414 1 0.526265 0.393298 0.207956
415 1 0.522759 0.240762 0.122107
416 1 0.519564 0.286424 0.148213
417 1 0.529307 0.447311 0.228907
418 1 0.532334 0.381003 0.196192
419 1 0.528892 0.213882 0.111604
420 1 0.525872 0.265087 0.139719
421 1 0.535355 0.446797 0.216295
422 1 0.538349 0.386385 0.190988
423 1 0.535347 0.212591 0.116198
424 1 0.531988 0.24793 0.130695
425 1 0.5413 0.445924 0.217815
426 1 0.544458 0.385517 0.193713
427 1 0.541324 0.219013 0.122531
428 1 0.538269 0.253928 0.137494
429 1 0.547535 0.436408 0.229355
430 1 0.550477 0.376727 0.197166
431 1 0.547443 0.211209 0.116622
432 1 0.544361 0.251555 0.128403
433 1 0.553537 0.435827 0.225583
434 1 0.556455 0.375106 0.200112
435 1 0.553448 0.209397 0.111286
436 1 0.550393 0.248309 0.133757
437 1 0.559556 0.437211 0.223014
438 1 0.562596 0.374235 0.194485
439 1 0.559421 0.213597 0.112925
440 1 0.556498 0.247438 0.135921
441 1 0.565553 0.436268 0.212895
442 1 0.568485 0.383172 0.177763
443 1 0.565303 0.212826 0.103301
444 1 0.562379 0.248302 0.132958
445 1 0.571572 0.437198 0.213391
446 1 0.57452 0.374063 0.185422
447 1 0.571509 0.209727 0.101305
448 1 0.568396 0.25128 0.114348
449 1 0.577524 0.43096 0.218005
450 1 0.580638 0.373236 0.179275
451 1 0.577424 0.200003 0.103132
452 1 0.574478 0.240165 0.123047
453 1 0.583656 0.431123 0.204099
454 1 0.586535 0.367074 0.174794
455 1 0.583367 0.204334 0.0954712
456 1 0.580341 0.237916 0.12091
457 1 0.589594 0.422386 0.203737
458 1 0.592545 0.354125 0.180608
459 1 0.589415 0.202587 0.0853356
460 1 0.586347 0.24367 0.111153
461 1 0.59555 0.408214 0.220108
462 1 0.598628 0.354037 0.191162
463 1 0.595511 0.187239 0.0951714
464 1 0.592457 0.222975 0.11427
465 1 0.601569 0.404966 0.21974
466 1 0.604577 0.348244 0.189921
467 1 0.601594 0.195634 0.101546
468 1 0.598444 0.224891 0.118373
469 1 0.607458 0.409489 0.226304
470 1 0.610453 0.35044 0.191895
471 1 0.607524 0.184474 0.09947
472 1 0.604658 0.226378 0.115675
473 1 0.613462 0.419022 0.219751
474 1 0.616467 0.361136 0.189572
475 1 0.613624 0.195263 0.091927
476 1 0.61062 0.221944 0.117898
477 1 0.619398 0.427317 0.220392
478 1 0.622445 0.362773 0.184252
479 1 0.619459 0.198307 0.103234
480 1 0.616541 0.238379 0.117064
481 1 0.625535 0.422758 0.211285
482 1 0.628463 0.357043 0.18525
483 1 0.62538 0.185213 0.109414
484 1 0.622447 0.229805 0.119464
485 1 0.631492 0.419381 0.209331
486 1 0.6344 0.352587 0.189627
487 1 0.631457 0.181532 0.117071
488 1 0.628417 0.218515 0.127924
489 1 0.637473 0.410926 0.216744
490 1 0.640462 0.348036 0.196674
491 1 0.637366 0.169551 0.141969
492 1 0.634453 0.213047 0.14537
493 1 0.64341 0.409318 0.224832
494 1 0.64635 0.341213 0.200342
495 1 0.643486 0.166969 0.139059
496 1 0.640423 0.211488 0.152837
497 1 0.649385 0.408495 0.217091
498 1 0.652402 0.349596 0.19453
499 1 0.649493 0.164338 0.130315
500 1 0.646461 0.203612 0.149905
501 1 0.655431 0.414542 0.210418
502 1 0.658428 0.344438 0.190332
503 1 0.655532 0.16677 0.124895
504 1 0.6524 0.208803 0.141621
505 1 0.661497 0.411686 0.214591
506 1 0.664488 0.347963 0.197365
507 1 0.661526 0.174595 0.120248
508 1 0.658565 0.210871 0.135453
509 1 0.667432 0.411503 0.220175
510 1 0.670383 0.350135 0.191992
511 1 0.667425 0.173068 0.126151
512 1 0.664477 0.212842 0.14248
513 1 0.673257 0.418551 0.213739
514 1 0.676213 0.352451 0.184206
515 1 0.673351 0.175301 0.117375
516 1 0.670523 0.211895 0.134259
517 1 0.679327 0.41192 0.214492
518 1 0.682361 0.342288 0.190766
519 1 0.679214 0.159201 0.123924
520 1 0.676352 0.211799 0.131002
521 1 0.685271 0.413704 0.210081
522 1 0.688398 0.353457 0.178751
523 1 0.685338 0.15996 0.122868
524 1 0.682222 0.195251 0.143211
525 1 0.691427 0.410324 0.20915
526 1 0.694352 0.346199 0.180613
527 1 0.691192 0.169025 0.122909
528 1 0.688229 0.210704 0.132344
529 1 0.697212 0.409205 0.200263
530 1 0.700202 0.340704 0.17094
531 1 0.69707 0.163581 0.119224
532 1 0.694178 0.207494 0.129987
533 1 0.703265 0.405132 0.189797
534 1 0.70626 0.339166 0.174016
535 1 0.703156 0.155253 0.113729
536 1 0.700109 0.196144 0.124116
537 1 0.709271 0.402494 0.201495
538 1 0.712265 0.340931 0.1819
539 1 0.709111 0.157676 0.109622
540 1 0.706166 0.199543 0.123575
541 1 0.715217 0.406357 0.20618
542 1 0.718226 0.339002 0.186179
543 1 0.715275 0.161305 0.114532
544 1 0.712278 0.193816 0.127514
545 1 0.721212 0.413646 0.205634
546 1 0.724443 0.343979 0.190177
547 1 0.721293 0.16461 0.121487
548 1 0.718254 0.19829 0.132434
549 1 0.727449 0.405743 0.219489
550 1 0.730494 0.337139 0.194471
551 1 0.727426 0.160699 0.118934
552 1 0.724314 0.200207 0.137911
553 1 0.733351 0.404699 0.216583
554 1 0.736408 0.345486 0.193558
555 1 0.733509 0.155959 0.12618
556 1 0.730494 0.194089 0.137473
557 1 0.73932 0.410487 0.214245
558 1 0.742267 0.343501 0.183808
559 1 0.739506 0.164034 0.132315
560 1 0.736432 0.199899 0.149656
561 1 0.745327 0.407486 0.208433
562 1 0.748349 0.345251 0.183657
563 1 0.74552 0.165179 0.122909
564 1 0.742637 0.2058 0.136405
565 1 0.751458 0.413363 0.210638
566 1 0.754275 0.341745 0.194111
567 1 0.751461 0.156545 0.133587
568 1 0.748498 0.201328 0.141384
569 1 0.757328 0.411824 0.216928
570 1 0.760321 0.349428 0.1927
571 1 0.75737 0.156013 0.149265
572 1 0.754428 0.198141 0.155429
573 1 0.763385 0.410553 0.20944
574 1 0.766259 0.342307 0.19615
575 1 0.763337 0.16382 0.157244
576 1 0.760359 0.203752 0.155812
577 1 0.769272 0.405975 0.218104
578 1 0.772157 0.335782 0.193279
579 1 0.769196 0.153311 0.17154
580 1 0.766306 0.196969 0.174228
581 1 0.775214 0.399161 0.207543
582 1 0.778158 0.327319 0.208164
583 1 0.775128 0.147232 0.169356
584 1 0.772179 0.192135 0.170181
585 1 0.781189 0.39593 0.222028
586 1 0.784164 0.327554 0.205288
587 1 0.781184 0.138075 0.162833
588 1 0.778223 0.178053 0.175703
589 1 0.787181 0.385555 0.222041
590 1 0.7901 0.321183 0.194636
591 1 0.787152 0.134396 0.160296
592 1 0.78416 0.181748 0.169898
593 1 0.79311 0.385376 0.214816
594 1 0.796173 0.319175 0.217271
595 1 0.793185 0.129628 0.156345
596 1 0.790169 0.175384 0.156792
597 1 0.799143 0.38456 0.228799
598 1 0.802159 0.317009 0.219268
599 1 0.799192 0.13534 0.175119
600 1 0.796155 0.169481 0.171435
601 1 0.805182 0.387343 0.233442
602 1 0.808335 0.324929 0.217096
603 1 0.805177 0.135364 0.175989
604 1 0.802192 0.170433 0.189406
605 1 0.81127 0.393993 0.22207
606 1 0.814176 0.334009 0.210712
607 1 0.81128 0.136961 0.168096
608 1 0.808219 0.176424 0.179591
609 1 0.817128 0.399306 0.229718
610 1 0.820141 0.32892 0.215039
611 1 0.81724 0.140056 0.179756
612 1 0.814215 0.183918 0.178458
613 1 0.823221 0.393251 0.221653
614 1 0.826199 0.327349 0.210215
615 1 0.823047 0.138637 0.19161
616 1 0.820188 0.180537 0.196213
617 1 0.829322 0.390473 0.219753
618 1 0.832248 0.323798 0.21043
619 1 0.829234 0.134514 0.189417
620 1 0.826229 0.172094 0.197536
621 1 0.835258 0.394868 0.209677
622 1 0.838253 0.324095 0.207169
623 1 0.835268 0.137188 0.189931
624 1 0.832236 0.178604 0.193447
625 1 0.841202 0.389308 0.225522
626 1 0.844106 0.320118 0.219601
627 1 0.841339 0.132088 0.180015
628 1 0.838265 0.177148 0.190501
629 1 0.847302 0.384471 0.23093
630 1 0.850202 0.321279 0.217316
631 1 0.847262 0.13116 0.179683
632 1 0.84435 0.170708 0.191503
633 1 0.853229 0.388118 0.224348
634 1 0.856279 0.325421 0.206452
635 1 0.853342 0.135249 0.177361
636 1 0.85029 0.170417 0.187574
637 1 0.85928 0.391663 0.229528
638 1 0.862277 0.316086 0.217632
639 1 0.859312 0.132091 0.190476
640 1 0.856303 0.17658 0.187492
641 1 0.865184 0.384213 0.229702
642 1 0.868121 0.32576 0.221593
643 1 0.865308 0.124975 0.190509
644 1 0.862346 0.168185 0.190942
645 1 0.871093 0.389254 0.235609
646 1 0.8741 0.321279 0.225141
647 1 0.871239 0.13004 0.18138
648 1 0.868214 0.171119 0.196171
649 1 0.87723 0.389603 0.232288
650 1 0.880275 0.327024 0.222597
651 1 0.877239 0.131038 0.193908
652 1 0.874223 0.176056 0.197126
653 1 0.883394 0.399475 0.237766
654 1 0.886398 0.324975 0.222132
655 1 0.883373 0.13643 0.20675
656 1 0.880343 0.177888 0.203256
657 1 0.889335 0.396954 0.230434
658 1 0.892369 0.322147 0.220536
659 1 0.889368 0.132373 0.208464
660 1 0.886331 0.174282 0.214086
661 1 0.895395 0.38869 0.236024
662 1 0.89859 0.326948 0.225386
663 1 0.895415 0.132236 0.194784
664 1 0.89234 0.174083 0.202255
665 1 0.901371 0.39663 0.236056
666 1 0.904435 0.333016 0.22734
667 1 0.90151 0.135632 0.197067
668 1 0.898381 0.175736 0.196714
669 1 0.907366 0.401893 0.230452
670 1 0.910376 0.336097 0.203733
671 1 0.907489 0.141401 0.192343
672 1 0.904494 0.184901 0.207708
673 1 0.913492 0.400114 0.209955
674 1 0.916535 0.332714 0.206736
675 1 0.913368 0.142189 0.181519
676 1 0.910414 0.18368 0.19054
677 1 0.919628 0.399197 0.217774
678 1 0.922524 0.324923 0.215348
679 1 0.919409 0.139127 0.187878
680 1 0.916351 0.184072 0.18891
681 1 0.925485 0.40044 0.218485
682 1 0.928516 0.33254 0.215582
683 1 0.925548 0.136095 0.192528
684 1 0.922475 0.178878 0.196593
685 1 0.931585 0.402672 0.229388
686 1 0.934651 0.332716 0.221707
687 1 0.931577 0.136364 0.19621
688 1 0.928556 0.180976 0.201144
689 1 0.937628 0.404994 0.232611
690 1 0.940597 0.338581 0.229643
691 1 0.937763 0.146331 0.196891
692 1 0.934588 0.184472 0.20111
693 1 0.943679 0.407946 0.240762
694 1 0.946635 0.338605 0.239049
695 1 0.943611 0.150852 0.211188
696 1 0.94069 0.196002 0.209031
697 1 0.949701 0.404681 0.241863
698 1 0.952736 0.33194 0.23734
699 1 0.949507 0.14344 0.225795
700 1 0.946575 0.189064 0.224366
701 1 0.955754 0.399699 0.241154
702 1 0.958685 0.328511 0.23415
703 1 0.955727 0.136511 0.219716
704 1 0.952638 0.181677 0.225239
705 1 0.961617 0.399233 0.243774
706 1 0.964578 0.326005 0.235306
707 1 0.961642 0.138301 0.214501
708 1 0.958685 0.181579 0.218021
709 1 0.967614 0.395522 0.237478
710 1 0.970705 0.326516 0.232915
711 1 0.967717 0.133131 0.208313
712 1 0.964816 0.177142 0.213931
713 1 0.973739 0.39564 0.239938
714 1 0.976817 0.329536 0.231541
715 1 0.973685 0.134705 0.221707
716 1 0.970638 0.175158 0.220265
717 1 0.979726 0.399497 0.241623
718 1 0.982651 0.331994 0.238772
719 1 0.979718 0.135726 0.223528
720 1 0.97666 0.175389 0.2208
721 1 0.985638 0.399023 0.247546
722 1 0.988724 0.326305 0.246977
723 1 0.985734 0.140467 0.220179
724 1 0.982694 0.183857 0.225002
725 1 0.991619 0.396659 0.249463
726 1 0.994525 0.327571 0.250109
727 1 0.991707 0.137483 0.24587
728 1 0.988784 0.177587 0.242725
729 1 0.00851554 0.792627 0.253622
730 1 0.011472 0.749629 0.257146
731 1 0.00853481 0.534341 0.251463
732 1 0.00563127 0.605719 0.24997
733 1 0.0144144 0.791422 0.253462
734 1 0.0173761 0.752572 0.258768
735 1 0.0143735 0.533125 0.247901
736 1 0.0114866 0.600435 0.254572
737 1 0.0203571 0.788995 0.243584
738 1 0.0233448 0.744957 0.240907
739 1 0.0204571 0.532826 0.247464
740 1 0.0175076 0.604095 0.24833
741 1 0.0264403 0.788405 0.247639
742 1 0.0295372 0.746114 0.251465
743 1 0.0264789 0.526669 0.253113
744 1 0.0235557 0.595658 0.243438
745 1 0.0323892 0.797021 0.244001
746 1 0.0354493 0.7578 0.246182
747 1 0.0323807 0.532423 0.252666
748 1 0.0294161 0.595125 0.253821
749 1 0.0385201 0.789848 0.241931
750 1 0.0415574 0.753273 0.238327
751 1 0.0386414 0.532133 0.255073
752 1 0.035461 0.604923 0.252398
753 1 0.0445109 0.795292 0.241115
754 1 0.0475737 0.758323 0.24133
755 1 0.0445942 0.537078 0.235407
756 1 0.0417183 0.601523 0.244742
757 1 0.0505677 0.80368 0.239702
758 1 0.0534581 0.758313 0.238222
759 1 0.0505484 0.538711 0.240171
760 1 0.0475239 0.60747 0.23482
761 1 0.0564493 0.805918 0.223879
762 1 0.0593816 0.762753 0.216733
763 1 0.056544 0.542301 0.249301
764 1 0.0535437 0.607424 0.245242
765 1 0.0623287 0.813203 0.213473
766 1 0.0652826 0.765975 0.210818
767 1 0.0623628 0.545051 0.242094
768 1 0.059521 0.61345 0.233323
769 1 0.0683431 0.790084 0.195862
770 1 0.0713411 0.754039 0.19862
771 1 0.0684015 0.541067 0.234297
772 1 0.0653034 0.615051 0.233206
773 1 0.074277 0.79649 0.201184
774 1 0.0773951 0.75598 0.213412
775 1 0.0743301 0.536954 0.224339
776 1 0.0714219 0.606902 0.221727
777 1 0.0804821 0.797503 0.215743
778 1 0.0834827 0.755584 0.217503
779 1 0.0803623 0.53606 0.233053
780 1 0.077375 0.604159 0.217439
781 1 0.0865049 0.793351 0.206931
782 1 0.0895303 0.755431 0.215972
783 1 0.0863978 0.540284 0.244826
784 1 0.0833855 0.602578 0.230538
785 1 0.0926437 0.793446 0.206306
786 1 0.0955458 0.743963 0.196368
787 1 0.0923687 0.536136 0.237971
788 1 0.0893883 0.60912 0.23667
789 1 0.0985458 0.785862 0.180044
790 1 0.10164 0.74251 0.189538
791 1 0.0985325 0.525669 0.236861
792 1 0.0955658 0.596644 0.217812
793 1 0.104637 0.78346 0.173865
794 1 0.107484 0.746196 0.188088
795 1 0.104437 0.526353 0.229287
796 1 0.10159 0.598085 0.21909
797 1 0.11035 0.790891 0.175271
798 1 0.113435 0.745822 0.180891
799 1 0.110466 0.531421 0.220526
800 1 0.107535 0.597387 0.212463
801 1 0.116434 0.783737 0.159944
802 1 0.11943 0.740488 0.171316
803 1 0.116513 0.532229 0.22526
804 1 0.113595 0.598153 0.205202
805 1 0.122448 0.776831 0.149758
806 1 0.125412 0.740523 0.1558
807 1 0.122504 0.534449 0.226092
808 1 0.119403 0.598906 0.205694
809 1 0.128339 0.79435 0.146399
810 1 0.131331 0.751913 0.156945
811 1 0.128433 0.534077 0.210805
812 1 0.125522 0.59841 0.189559
813 1 0.134432 0.792878 0.147778
814 1 0.137354 0.748268 0.162202
815 1 0.134314 0.538225 0.218885
816 1 0.131368 0.604363 0.1953
817 1 0.140329 0.789999 0.156117
818 1 0.143254 0.74677 0.163497
819 1 0.140306 0.539608 0.218381
820 1 0.137272 0.602137 0.201099
821 1 0.146286 0.782936 0.140184
822 1 0.149208 0.733829 0.14124
823 1 0.146339 0.532691 0.207807
824 1 0.143392 0.600518 0.193572
825 1 0.152218 0.776676 0.131259
826 1 0.155349 0.738716 0.149375
827 1 0.152285 0.527432 0.201436
828 1 0.149315 0.594708 0.184395
829 1 0.15848 0.768808 0.140409
830 1 0.161357 0.732511 0.158943
831 1 0.158294 0.530313 0.204314
832 1 0.155227 0.593815 0.186889
833 1 0.164278 0.778577 0.143281
834 1 0.167225 0.734667 0.154752
835 1 0.164377 0.524136 0.209653
836 1 0.161366 0.59242 0.187746
837 1 0.170334 0.779942 0.151178
838 1 0.173352 0.732992 0.1619
839 1 0.17031 0.527047 0.216118
840 1 0.167332 0.593255 0.195405
841 1 0.176238 0.771107 0.144667
842 1 0.179255 0.738291 0.159952
843 1 0.176328 0.518201 0.208688
844 1 0.173223 0.588559 0.190767
845 1 0.182245 0.777616 0.143507
846 1 0.185326 0.738836 0.151507
847 1 0.182411 0.522171 0.203282
848 1 0.17923 0.590141 0.189247
849 1 0.188318 0.778755 0.139639
850 1 0.191299 0.730588 0.143968
851 1 0.188273 0.527064 0.214519
852 1 0.185363 0.59336 0.188414
853 1 0.194271 0.76727 0.123362
854 1 0.197391 0.733544 0.140209
855 1 0.194282 0.522655 0.211791
856 1 0.191236 0.58966 0.188805
857 1 0.200294 0.775056 0.117504
858 1 0.203437 0.74389 0.135686
859 1 0.200343 0.527916 0.206819
860 1 0.1974 0.593508 0.189881
861 1 0.206398 0.785926 0.130271
862 1 0.209393 0.743254 0.139598
863 1 0.206481 0.533165 0.2009
864 1 0.203336 0.599576 0.184175
865 1 0.212311 0.785788 0.13193
866 1 0.215339 0.74561 0.138385
867 1 0.212414 0.536528 0.19862
868 1 0.209445 0.600526 0.180493
869 1 0.218271 0.788886 0.125824
870 1 0.221296 0.750156 0.133839
871 1 0.218427 0.535395 0.194425
872 1 0.215418 0.600858 0.173879
873 1 0.224349 0.791853 0.118951
874 1 0.227502 0.749934 0.129065
875 1 0.224259 0.543701 0.191367
876 1 0.221378 0.604343 0.170906
877 1 0.230435 0.792064 0.117585
878 1 0.233467 0.752179 0.137893
879 1 0.230572 0.544679 0.204133
880 1 0.227429 0.604669 0.176429
881 1 0.236601 0.78827 0.131193
882 1 0.23965 0.750029 0.146366
883 1 0.236557 0.543109 0.20244
884 1 0.233582 0.612536 0.18406
885 1 0.242732 0.790029 0.134283
886 1 0.245865 0.748157 0.143872
887 1 0.242688 0.54203 0.205282
888 1 0.239686 0.608586 0.1879
889 1 0.248828 0.789952 0.125612
890 1 0.251697 0.747397 0.13942
891 1 0.248821 0.536358 0.211039
892 1 0.24579 0.603756 0.188242
893 1 0.254824 0.7774 0.11247
894 1 0.257754 0.725166 0.121905
895 1 0.254711 0.529904 0.202736
896 1 0.251697 0.599356 0.185984
897 1 0.260691 0.764388 0.0962811
898 1 0.26377 0.726019 0.110267
899 1 0.260816 0.528184 0.195601
900 1 0.257664 0.586701 0.173984
901 1 0.266815 0.763199 0.089937
902 1 0.269769 0.71618 0.104421
903 1 0.266744 0.517664 0.190648
904 1 0.26375 0.589829 0.167453
905 1 0.272848 0.759623 0.0872658
906 1 0.275864 0.730353 0.107137
907 1 0.272923 0.523546 0.187598
908 1 0.269811 0.58196 0.160763
909 1 0.278851 0.774108 0.0834229
910 1 0.281941 0.741613 0.106712
911 1 0.278815 0.537441 0.190096