ITEM: TIMESTEP
434000
ITEM: NUMBER OF ATOMS
1456
ITEM: BOX BOUNDS ss ss ss
-0.0399323 459.069
7.27436 17.12
7.18093 18.3479
ITEM: ATOMS id type xs ys zs
1 1 0.00279364 0.517443 0.249838
2 1 0.00544465 0.443729 0.249834
3 1 0.00275911 0.229813 0.249826
4 1 9.58453e-05 0.299457 0.249841
5 1 0.00278166 0.949346 0.249828
6 1 0.00544472 0.877753 0.249882
7 1 0.00274524 0.66108 0.249835
8 1 9.76182e-05 0.732965 0.249835
9 1 0.00845338 0.50858 0.250266
10 1 0.01133 0.435794 0.249599
11 1 0.00847562 0.241817 0.24737
12 1 0.00561337 0.285498 0.24906
13 1 0.0143469 0.501163 0.262299
14 1 0.0175873 0.433509 0.256634
15 1 0.0143345 0.245723 0.241012
16 1 0.011349 0.285164 0.24671
17 1 0.0204864 0.507984 0.258184
18 1 0.023487 0.426237 0.253852
19 1 0.0204055 0.24166 0.245835
20 1 0.0173439 0.285823 0.244076
21 1 0.0264433 0.500901 0.255646
22 1 0.0292985 0.431618 0.248793
23 1 0.0264741 0.232782 0.262525
24 1 0.0235118 0.272183 0.252899
25 1 0.0323497 0.501984 0.25292
26 1 0.0353041 0.432135 0.254075
27 1 0.0324307 0.232907 0.258879
28 1 0.0294608 0.277009 0.257561
29 1 0.0384304 0.502518 0.250309
30 1 0.0415151 0.435188 0.259966
31 1 0.0383893 0.245041 0.271153
32 1 0.035301 0.281299 0.259655
33 1 0.044384 0.506686 0.244575
34 1 0.0474127 0.434192 0.247335
35 1 0.044432 0.23726 0.276583
36 1 0.0414444 0.283146 0.275236
37 1 0.0504493 0.506318 0.245823
38 1 0.0535708 0.438794 0.255246
39 1 0.0504573 0.245863 0.280668
40 1 0.0474344 0.283338 0.265106
41 1 0.0565239 0.502602 0.252649
42 1 0.059467 0.43153 0.255528
43 1 0.056381 0.241677 0.281591
44 1 0.0534034 0.286983 0.278798
45 1 0.0624751 0.502316 0.249352
46 1 0.0654805 0.432887 0.258909
47 1 0.0623346 0.243448 0.277893
48 1 0.0593958 0.280641 0.270487
49 1 0.0684976 0.500349 0.254673
50 1 0.0714098 0.427052 0.265981
51 1 0.0683628 0.238958 0.281811
52 1 0.0653611 0.284176 0.277726
53 1 0.0743864 0.500818 0.25459
54 1 0.0774341 0.432161 0.261589
55 1 0.0744371 0.241548 0.290815
56 1 0.0713907 0.274789 0.284656
57 1 0.0803966 0.500405 0.25322
58 1 0.0833171 0.431316 0.262007
59 1 0.0804905 0.235289 0.281894
60 1 0.0774508 0.27787 0.280792
61 1 0.0862918 0.496362 0.255638
62 1 0.0893484 0.422413 0.262554
63 1 0.0863529 0.233339 0.274886
64 1 0.0834438 0.279872 0.274734
65 1 0.0923004 0.486544 0.255865
66 1 0.0953665 0.4217 0.255403
67 1 0.0924003 0.227969 0.278192
68 1 0.0893413 0.26553 0.277398
69 1 0.0983084 0.493696 0.240795
70 1 0.101307 0.42077 0.25207
71 1 0.0983462 0.225916 0.273576
72 1 0.0953963 0.275459 0.272517
73 1 0.104367 0.487306 0.245069
74 1 0.107379 0.423018 0.257057
75 1 0.104441 0.228623 0.272763
76 1 0.101425 0.266621 0.266539
77 1 0.110311 0.488089 0.26002
78 1 0.113443 0.425441 0.262306
79 1 0.11028 0.23071 0.269807
80 1 0.107325 0.275188 0.268076
81 1 0.116409 0.489552 0.262855
82 1 0.119307 0.422446 0.267441
83 1 0.116343 0.226974 0.273652
84 1 0.113309 0.273613 0.271104
85 1 0.122446 0.491722 0.252071
86 1 0.125499 0.418637 0.248505
87 1 0.122311 0.231184 0.264895
88 1 0.119333 0.267469 0.268646
89 1 0.128425 0.484714 0.239774
90 1 0.131451 0.417026 0.248943
91 1 0.128313 0.224036 0.267717
92 1 0.12532 0.269426 0.25444
93 1 0.134449 0.4908 0.236755
94 1 0.137444 0.427737 0.246185
95 1 0.13441 0.230832 0.275694
96 1 0.131474 0.266292 0.271215
97 1 0.140441 0.500704 0.243654
98 1 0.143485 0.431201 0.254591
99 1 0.140323 0.227175 0.283081
100 1 0.137454 0.274188 0.270055
101 1 0.14656 0.494927 0.238806
102 1 0.149548 0.424381 0.254692
103 1 0.146466 0.237348 0.289924
104 1 0.143245 0.281245 0.279477
105 1 0.152427 0.487476 0.242833
106 1 0.155554 0.417769 0.259589
107 1 0.152461 0.23635 0.298946
108 1 0.149552 0.277565 0.285457
109 1 0.158443 0.487483 0.248153
110 1 0.161371 0.421106 0.26928
111 1 0.158531 0.232662 0.310142
112 1 0.15545 0.270683 0.29453
113 1 0.164469 0.491111 0.252794
114 1 0.167547 0.428244 0.264986
115 1 0.16458 0.238695 0.31057
116 1 0.161463 0.274198 0.304317
117 1 0.170549 0.49062 0.244605
118 1 0.173427 0.4281 0.268798
119 1 0.170405 0.237141 0.319708
120 1 0.167426 0.281154 0.310857
121 1 0.176493 0.493347 0.263868
122 1 0.179362 0.420734 0.271587
123 1 0.176377 0.23084 0.316957
124 1 0.1734 0.278926 0.307732
125 1 0.182268 0.488489 0.255156
126 1 0.185289 0.419396 0.276117
127 1 0.182397 0.233651 0.315299
128 1 0.179413 0.275899 0.308493
129 1 0.188484 0.478488 0.266635
130 1 0.191529 0.409061 0.279212
131 1 0.188508 0.224289 0.314565
132 1 0.185427 0.267661 0.307155
133 1 0.194541 0.481196 0.266397
134 1 0.197684 0.411604 0.28086
135 1 0.194627 0.218578 0.306733
136 1 0.191537 0.25704 0.299759
137 1 0.200559 0.490662 0.270315
138 1 0.203661 0.423499 0.277082
139 1 0.200494 0.22097 0.305698
140 1 0.197615 0.266429 0.297766
141 1 0.206592 0.491493 0.267609
142 1 0.209504 0.424483 0.274502
143 1 0.206501 0.227528 0.297703
144 1 0.203459 0.270299 0.294145
145 1 0.212566 0.497768 0.26265
146 1 0.215473 0.424789 0.271042
147 1 0.212387 0.228207 0.305668
148 1 0.209398 0.277217 0.294367
149 1 0.218464 0.489741 0.257422
150 1 0.221544 0.42347 0.27674
151 1 0.218377 0.234498 0.315657
152 1 0.215363 0.273516 0.301009
153 1 0.224613 0.485775 0.255948
154 1 0.227512 0.42106 0.26312
155 1 0.224322 0.22622 0.312789
156 1 0.221337 0.276389 0.308704
157 1 0.230616 0.486938 0.255181
158 1 0.233453 0.426061 0.280296
159 1 0.230446 0.235156 0.336054
160 1 0.227441 0.278304 0.309884
161 1 0.23654 0.488453 0.269158
162 1 0.239353 0.428436 0.295134
163 1 0.236337 0.243751 0.340349
164 1 0.233364 0.282507 0.321111
165 1 0.242513 0.487512 0.269335
166 1 0.245407 0.416307 0.286228
167 1 0.242424 0.236131 0.343683
168 1 0.2395 0.282567 0.333054
169 1 0.248601 0.481191 0.257177
170 1 0.251574 0.416195 0.278225
171 1 0.248441 0.230134 0.328798
172 1 0.245393 0.278472 0.326604
173 1 0.254639 0.484953 0.260375
174 1 0.257621 0.413253 0.274733
175 1 0.254478 0.224764 0.32797
176 1 0.251553 0.270325 0.320372
177 1 0.260651 0.479258 0.258499
178 1 0.263579 0.414597 0.280863
179 1 0.26051 0.228046 0.332093
180 1 0.257444 0.264365 0.315048
181 1 0.266701 0.483194 0.261394
182 1 0.269699 0.418826 0.28593
183 1 0.266594 0.241847 0.344434
184 1 0.263567 0.274986 0.326421
185 1 0.272677 0.496616 0.267301
186 1 0.275673 0.429413 0.282248
187 1 0.272756 0.247081 0.353972
188 1 0.269668 0.283773 0.339139
189 1 0.27855 0.492748 0.257873
190 1 0.281689 0.421651 0.272674
191 1 0.278802 0.243302 0.352223
192 1 0.275847 0.287351 0.336587
193 1 0.284894 0.493673 0.252082
194 1 0.287762 0.422373 0.271939
195 1 0.28464 0.240935 0.340164
196 1 0.281704 0.283454 0.332342
197 1 0.2908 0.489503 0.2577
198 1 0.293811 0.420469 0.267445
199 1 0.290776 0.236589 0.326107
200 1 0.287721 0.274415 0.319674
201 1 0.296701 0.480159 0.237832
202 1 0.299758 0.417868 0.271435
203 1 0.296837 0.229025 0.326989
204 1 0.293824 0.271661 0.311946
205 1 0.302673 0.484851 0.262863
206 1 0.305688 0.419899 0.286096
207 1 0.302717 0.237693 0.338768
208 1 0.299869 0.279489 0.321657
209 1 0.308699 0.488717 0.264192
210 1 0.31174 0.426774 0.283707
211 1 0.308796 0.237136 0.339857
212 1 0.30581 0.274566 0.32669
213 1 0.314706 0.49012 0.260795
214 1 0.31782 0.43868 0.283076
215 1 0.31492 0.246913 0.340757
216 1 0.311808 0.281251 0.332461
217 1 0.32081 0.499189 0.257741
218 1 0.323908 0.439522 0.276819
219 1 0.320994 0.258153 0.345652
220 1 0.317888 0.296514 0.336715
221 1 0.326917 0.500835 0.24724
222 1 0.329915 0.439442 0.277259
223 1 0.326795 0.264283 0.346684
224 1 0.32387 0.303808 0.328323
225 1 0.333107 0.50155 0.250269
226 1 0.336044 0.439472 0.277614
227 1 0.333004 0.260902 0.353496
228 1 0.329988 0.295182 0.332962
229 1 0.339052 0.506473 0.259334
230 1 0.342013 0.442386 0.29052
231 1 0.338915 0.272045 0.36456
232 1 0.336028 0.307436 0.338238
233 1 0.344923 0.50535 0.270231
234 1 0.34789 0.441089 0.292852
235 1 0.344921 0.262751 0.370923
236 1 0.341916 0.30402 0.34984
237 1 0.35095 0.503574 0.265566
238 1 0.353911 0.443747 0.295671
239 1 0.350869 0.268251 0.363924
240 1 0.347814 0.300678 0.347003
241 1 0.356859 0.507247 0.276451
242 1 0.359937 0.436679 0.304974
243 1 0.35682 0.259103 0.364401
244 1 0.35385 0.302872 0.349157
245 1 0.363012 0.496446 0.274369
246 1 0.365917 0.431189 0.300435
247 1 0.362857 0.251835 0.369994
248 1 0.359889 0.296248 0.355528
249 1 0.368902 0.499574 0.283595
250 1 0.371971 0.434708 0.305683
251 1 0.368815 0.255665 0.380977
252 1 0.36583 0.292805 0.362755
253 1 0.374904 0.496519 0.278751
254 1 0.377913 0.429481 0.301883
255 1 0.374971 0.256749 0.380827
256 1 0.371849 0.292888 0.359194
257 1 0.380964 0.498373 0.276593
258 1 0.383985 0.432607 0.297607
259 1 0.381027 0.255754 0.376554
260 1 0.377955 0.296786 0.362634
261 1 0.386997 0.496756 0.276402
262 1 0.390047 0.432786 0.308432
263 1 0.387107 0.251506 0.363674
264 1 0.384076 0.288909 0.354516
265 1 0.392903 0.500281 0.28598
266 1 0.39601 0.440532 0.308665
267 1 0.393045 0.257703 0.371302
268 1 0.39004 0.291883 0.351622
269 1 0.399069 0.497888 0.274533
270 1 0.401957 0.429978 0.292986
271 1 0.398898 0.25481 0.366591
272 1 0.395982 0.299012 0.359479
273 1 0.405202 0.494521 0.279634
274 1 0.40808 0.433128 0.302371
275 1 0.405033 0.251539 0.35924
276 1 0.401916 0.288983 0.344894
277 1 0.410922 0.497742 0.274968
278 1 0.414051 0.433823 0.305601
279 1 0.410981 0.261173 0.379373
280 1 0.407977 0.293864 0.352355
281 1 0.417019 0.487905 0.274961
282 1 0.419916 0.425891 0.305205
283 1 0.416953 0.260664 0.385711
284 1 0.414007 0.298547 0.373883
285 1 0.423054 0.488692 0.276134
286 1 0.426059 0.427034 0.307848
287 1 0.422989 0.252729 0.377433
288 1 0.420009 0.293236 0.365826
289 1 0.429076 0.486953 0.283117
290 1 0.431978 0.417142 0.311872
291 1 0.428938 0.240233 0.377647
292 1 0.426051 0.290226 0.358642
293 1 0.434948 0.476395 0.27639
294 1 0.437882 0.405159 0.299964
295 1 0.434813 0.233827 0.38414
296 1 0.431913 0.276346 0.365577
297 1 0.440955 0.469293 0.271685
298 1 0.443969 0.407371 0.299916
299 1 0.440994 0.239678 0.386559
300 1 0.437967 0.274816 0.369364
301 1 0.447008 0.469395 0.278398
302 1 0.449898 0.406016 0.310302
303 1 0.446917 0.23324 0.394309
304 1 0.444053 0.275283 0.370778
305 1 0.452921 0.464374 0.274629
306 1 0.455967 0.405606 0.309408
307 1 0.452918 0.237196 0.401919
308 1 0.449998 0.272281 0.378399
309 1 0.459006 0.465932 0.283403
310 1 0.461967 0.395655 0.312617
311 1 0.458881 0.229125 0.403834
312 1 0.455805 0.273839 0.380651
313 1 0.464905 0.459046 0.289504
314 1 0.467945 0.402707 0.328648
315 1 0.464702 0.237793 0.40909
316 1 0.461758 0.267241 0.382742
317 1 0.471 0.457262 0.297489
318 1 0.473734 0.395024 0.339106
319 1 0.470553 0.223968 0.412536
320 1 0.467623 0.270602 0.395731
321 1 0.476863 0.443759 0.3212
322 1 0.479591 0.372094 0.357208
323 1 0.476205 0.212521 0.429201
324 1 0.473506 0.265583 0.405231
325 1 0.482524 0.430717 0.338066
326 1 0.485314 0.357471 0.37401
327 1 0.481947 0.179353 0.427292
328 1 0.47915 0.23717 0.411425
329 1 0.488391 0.407728 0.375402
330 1 0.490953 0.345965 0.436082
331 1 0.487788 0.189882 0.459166
332 1 0.484954 0.221997 0.412499
333 1 0.494026 0.382895 0.457008
334 1 0.495899 0.342997 0.553489
335 1 0.492356 0.204234 0.588681
336 1 0.490395 0.221147 0.501263
337 1 0.498952 0.365952 0.567556
338 1 0.500554 0.363244 0.676138
339 1 0.496733 0.252828 0.736819
340 1 0.494879 0.249089 0.645356
341 1 0.503502 0.421633 0.701437
342 1 0.504618 0.470748 0.82248
343 1 0.500777 0.347412 0.883826
344 1 0.499401 0.306337 0.783597
345 1 0.506877 0.567839 0.823782
346 1 0.506675 0.696849 0.901898
347 1 0.503198 0.552051 0.99929
348 1 0.503043 0.434659 0.931631
349 1 0.507834 0.826329 0.853868
350 1 0.50553 0.916539 0.790957
351 1 0.502472 0.818214 0.94438
352 1 0.503896 0.693697 0.986949
353 1 0.505963 0.966836 0.662562
354 1 0.503477 0.956278 0.577914
355 1 0.500534 0.927952 0.754212
356 1 0.502621 0.903676 0.846513
357 1 0.504017 0.923653 0.449754
358 1 0.501521 0.90701 0.365497
359 1 0.498677 0.920324 0.53355
360 1 0.500446 0.942241 0.630212
361 1 0.501979 0.851471 0.240674
362 1 0.499471 0.817541 0.160782
363 1 0.496651 0.880038 0.315157
364 1 0.498539 0.913989 0.410232
365 1 0.499725 0.713331 0.0548357
366 1 0.497229 0.638288 0.00839746
367 1 0.494533 0.79261 0.103056
368 1 0.496364 0.844005 0.189872
369 1 0.497505 0.476912 -0.00443632
370 1 0.494957 0.390124 0.0342404
371 1 0.492289 0.581418 -0.00223122
372 1 0.49414 0.690042 0.0143045
373 1 0.495266 0.277444 0.121667
374 1 0.492895 0.204895 0.187515
375 1 0.490015 0.355215 0.0711845
376 1 0.492017 0.444762 0.0221327
377 1 0.493246 0.115701 0.290305
378 1 0.490938 0.0607498 0.360065
379 1 0.488081 0.149336 0.207533
380 1 0.489932 0.238813 0.144149
381 1 0.491217 0.0136239 0.482219
382 1 0.488652 0.0298794 0.57722
383 1 0.485839 0.010016 0.397611
384 1 0.487896 0.0595346 0.309579
385 1 0.489228 0.10274 0.692514
386 1 0.488476 0.249889 0.693371
387 1 0.484605 0.160267 0.591242
388 1 0.485358 0.02619 0.527534
389 1 0.490741 0.355899 0.710945
390 1 0.491501 0.468298 0.62725
391 1 0.486843 0.415187 0.554116
392 1 0.485935 0.28654 0.613463
393 1 0.494552 0.532876 0.621896
394 1 0.496111 0.601194 0.517587
395 1 0.491386 0.60082 0.450661
396 1 0.489464 0.518967 0.530927
397 1 0.499435 0.610622 0.50487
398 1 0.501347 0.613244 0.394285
399 1 0.496776 0.663172 0.32257
400 1 0.494459 0.644242 0.41576
401 1 0.504771 0.608936 0.38682
402 1 0.507215 0.577425 0.294795
403 1 0.502761 0.608779 0.209034
404 1 0.499793 0.652975 0.284516
405 1 0.510687 0.570603 0.308768
406 1 0.513406 0.527561 0.236841
407 1 0.509352 0.463136 0.132563
408 1 0.506374 0.544903 0.172239
409 1 0.516643 0.549998 0.275199
410 1 0.519519 0.497066 0.211937
411 1 0.516026 0.413022 0.0822787
412 1 0.512903 0.452434 0.126823
413 1 0.522608 0.527982 0.24877
414 1 0.525683 0.488203 0.185402
415 1 0.522257 0.378364 0.0543719
416 1 0.519197 0.415854 0.0952919
417 1 0.529004 0.533437 0.22238
418 1 0.532018 0.488881 0.169405
419 1 0.528686 0.362622 0.0472211
420 1 0.525445 0.392594 0.0754803
421 1 0.535127 0.527661 0.222563
422 1 0.538215 0.48429 0.172816
423 1 0.534888 0.365315 0.0465456
424 1 0.531791 0.389054 0.0712451
425 1 0.541143 0.524338 0.221827
426 1 0.544193 0.482475 0.170029
427 1 0.540902 0.354669 0.0510762
428 1 0.537866 0.386679 0.0770833
429 1 0.547202 0.528609 0.21111
430 1 0.550146 0.479133 0.176588
431 1 0.547003 0.344168 0.0493568
432 1 0.543913 0.382403 0.0698209
433 1 0.553059 0.52331 0.221135
434 1 0.556078 0.475836 0.167553
435 1 0.553047 0.337261 0.0527177
436 1 0.550044 0.366916 0.0846019
437 1 0.559122 0.515116 0.215646
438 1 0.562055 0.475346 0.16738
439 1 0.558924 0.335912 0.0471781
440 1 0.55597 0.364028 0.0743835
441 1 0.565036 0.516459 0.212406
442 1 0.568067 0.461048 0.172001
443 1 0.56498 0.338948 0.0347635
444 1 0.561954 0.368237 0.0680235
445 1 0.571208 0.501812 0.222323
446 1 0.574068 0.466564 0.172358
447 1 0.571056 0.349647 0.0327827
448 1 0.568151 0.369675 0.0594839
449 1 0.577207 0.510096 0.21279
450 1 0.580157 0.466741 0.161125
451 1 0.576949 0.337474 0.0347824
452 1 0.574026 0.373743 0.0653806
453 1 0.583037 0.507782 0.210036
454 1 0.586067 0.460562 0.17165
455 1 0.582974 0.318137 0.0459585
456 1 0.579979 0.356227 0.0651966
457 1 0.58923 0.516525 0.21136
458 1 0.592135 0.46813 0.167856
459 1 0.589158 0.318902 0.0548721
460 1 0.586014 0.353775 0.0749975
461 1 0.59518 0.50829 0.214001
462 1 0.598221 0.449585 0.175545
463 1 0.594955 0.312607 0.057746
464 1 0.592063 0.358839 0.0854592
465 1 0.601266 0.505601 0.212936
466 1 0.604294 0.454339 0.171646
467 1 0.601136 0.301536 0.0678852
468 1 0.598066 0.336578 0.0895232
469 1 0.607201 0.503224 0.207486
470 1 0.610115 0.445985 0.159656
471 1 0.607189 0.30852 0.0524219
472 1 0.604194 0.338962 0.0812888
473 1 0.613105 0.50482 0.202227
474 1 0.616168 0.456924 0.162168
475 1 0.613341 0.310903 0.039226
476 1 0.610214 0.333501 0.0672626
477 1 0.619314 0.508007 0.201447
478 1 0.622322 0.453081 0.168682
479 1 0.619351 0.314552 0.0524935
480 1 0.616238 0.345129 0.0687289
481 1 0.625408 0.511219 0.203278
482 1 0.628299 0.447654 0.168258
483 1 0.625332 0.304207 0.0611636
484 1 0.622317 0.335693 0.0841611
485 1 0.631327 0.504487 0.208955
486 1 0.634289 0.451906 0.170993
487 1 0.631412 0.294073 0.0572823
488 1 0.628419 0.331413 0.0832468
489 1 0.637398 0.505727 0.205632
490 1 0.640414 0.448996 0.16862
491 1 0.63734 0.295071 0.0663011
492 1 0.634398 0.327289 0.0867207
493 1 0.643349 0.505099 0.2028
494 1 0.646509 0.449662 0.166458
495 1 0.643355 0.295746 0.07231
496 1 0.640361 0.32631 0.0912948
497 1 0.649408 0.510452 0.206282
498 1 0.652512 0.451142 0.17142
499 1 0.64939 0.297602 0.0668771
500 1 0.646363 0.328084 0.0886711
501 1 0.655581 0.508146 0.210342
502 1 0.658559 0.451583 0.16916
503 1 0.655631 0.301161 0.0634808
504 1 0.65253 0.328 0.0897776
505 1 0.661637 0.508197 0.200744
506 1 0.664621 0.4502 0.166867
507 1 0.661595 0.291301 0.0550977
508 1 0.658623 0.329249 0.0846871
509 1 0.667653 0.503379 0.20957
510 1 0.670731 0.445668 0.170059
511 1 0.667525 0.299107 0.0667703
512 1 0.664547 0.333671 0.0818748
513 1 0.673636 0.499099 0.203614
514 1 0.676582 0.442271 0.168406
515 1 0.673685 0.294077 0.0623923
516 1 0.670567 0.325585 0.0870735
517 1 0.679635 0.505495 0.203078
518 1 0.682729 0.445206 0.163875
519 1 0.679587 0.28771 0.0575086
520 1 0.676621 0.323871 0.0861565
521 1 0.6858 0.504295 0.193896
522 1 0.688784 0.445914 0.155139
523 1 0.685661 0.28883 0.0557882
524 1 0.682688 0.32588 0.0768152
525 1 0.691681 0.507004 0.197682
526 1 0.694704 0.449699 0.161943
527 1 0.691616 0.294932 0.0484645
528 1 0.688626 0.323912 0.0778657
529 1 0.697709 0.50227 0.201594
530 1 0.700621 0.448451 0.166539
531 1 0.697581 0.305556 0.0534407
532 1 0.69461 0.329698 0.0785161
533 1 0.703602 0.507072 0.202156
534 1 0.706728 0.450282 0.168226
535 1 0.703601 0.294298 0.059045
536 1 0.700563 0.329765 0.078292
537 1 0.709619 0.502324 0.203827
538 1 0.712608 0.452998 0.162905
539 1 0.709502 0.284302 0.0667443
540 1 0.706612 0.328776 0.087921
541 1 0.715553 0.509347 0.199954
542 1 0.718655 0.440572 0.171015
543 1 0.715416 0.28321 0.0747788
544 1 0.712452 0.328655 0.0920459
545 1 0.721564 0.506171 0.199056
546 1 0.724537 0.443966 0.171096
547 1 0.721484 0.282355 0.072313
548 1 0.71846 0.317606 0.0911737
549 1 0.727679 0.497219 0.211736
550 1 0.730666 0.429108 0.172205
551 1 0.727278 0.277149 0.069918
552 1 0.724346 0.319843 0.0947728
553 1 0.733624 0.484403 0.205446
554 1 0.736596 0.426219 0.170407
555 1 0.733514 0.259688 0.0820569
556 1 0.730402 0.302678 0.100733
557 1 0.739448 0.488328 0.203066
558 1 0.742477 0.431968 0.170285
559 1 0.739447 0.260255 0.0840685
560 1 0.736518 0.29976 0.0979123
561 1 0.745388 0.494719 0.200226
562 1 0.748422 0.428442 0.177996
563 1 0.745511 0.261331 0.0910955
564 1 0.742481 0.303306 0.0995941
565 1 0.7514 0.492062 0.210051
566 1 0.754379 0.432932 0.181404
567 1 0.751472 0.255374 0.0968952
568 1 0.748517 0.294303 0.11619
569 1 0.757366 0.501712 0.20432
570 1 0.760404 0.435291 0.179403
571 1 0.757359 0.257613 0.106059
572 1 0.754389 0.295852 0.122576
573 1 0.76341 0.499789 0.205534
574 1 0.766379 0.431685 0.177935
575 1 0.763349 0.257758 0.108359
576 1 0.760438 0.296843 0.124428
577 1 0.769373 0.493566 0.210421
578 1 0.772196 0.428228 0.194502
579 1 0.769393 0.253211 0.110329
580 1 0.766421 0.296095 0.119834
581 1 0.775238 0.49115 0.218868
582 1 0.778219 0.426326 0.191471
583 1 0.775351 0.24674 0.130069
584 1 0.772383 0.285505 0.141933
585 1 0.781309 0.49383 0.210948
586 1 0.78429 0.430843 0.187551
587 1 0.781292 0.241882 0.138737
588 1 0.778334 0.282284 0.146681
589 1 0.78725 0.497906 0.214014
590 1 0.790198 0.4398 0.192441
591 1 0.7874 0.247401 0.131003
592 1 0.784283 0.283154 0.141467
593 1 0.79325 0.502682 0.216143
594 1 0.796128 0.434374 0.196635
595 1 0.793336 0.252693 0.135421
596 1 0.790376 0.297909 0.149443
597 1 0.799129 0.497183 0.215905
598 1 0.802257 0.439633 0.191945
599 1 0.799256 0.249226 0.131924
600 1 0.796345 0.2941 0.144022
601 1 0.805225 0.509453 0.219485
602 1 0.808253 0.445662 0.195285
603 1 0.805206 0.261025 0.140452
604 1 0.802131 0.298647 0.143024
605 1 0.811208 0.510182 0.213127
606 1 0.814221 0.433862 0.202308
607 1 0.811179 0.260063 0.148373
608 1 0.808217 0.300852 0.159981
609 1 0.817336 0.495966 0.222914
610 1 0.820301 0.430935 0.198494
611 1 0.817201 0.245169 0.146022
612 1 0.814313 0.287793 0.158936
613 1 0.82331 0.496902 0.221643
614 1 0.826259 0.4261 0.201432
615 1 0.823281 0.238459 0.150254
616 1 0.820307 0.279213 0.158408
617 1 0.829308 0.49048 0.223685
618 1 0.832311 0.41835 0.213868
619 1 0.829362 0.235173 0.166536
620 1 0.826305 0.275677 0.173275
621 1 0.835357 0.488588 0.231929
622 1 0.838263 0.421071 0.213992
623 1 0.835364 0.230283 0.168731
624 1 0.832423 0.271674 0.182042
625 1 0.841371 0.490336 0.226029
626 1 0.844472 0.420392 0.216555
627 1 0.841256 0.227473 0.177449
628 1 0.838441 0.275417 0.190172
629 1 0.847384 0.492475 0.227535
630 1 0.850283 0.420095 0.229554
631 1 0.847301 0.22615 0.187432
632 1 0.844303 0.270586 0.188176
633 1 0.853515 0.488488 0.246214
634 1 0.85659 0.419907 0.233155
635 1 0.853304 0.227719 0.185989
636 1 0.850226 0.271939 0.204287
637 1 0.859587 0.48823 0.240173
638 1 0.86253 0.423712 0.219651
639 1 0.859448 0.228084 0.190148
640 1 0.856302 0.26538 0.198237
641 1 0.865469 0.490997 0.23332
642 1 0.868486 0.422432 0.220726
643 1 0.865517 0.239035 0.182981
644 1 0.862468 0.275634 0.195282
645 1 0.871504 0.486388 0.23507
646 1 0.874537 0.422401 0.220656
647 1 0.871567 0.232601 0.176811
648 1 0.868614 0.275344 0.186776
649 1 0.877669 0.487582 0.239326
650 1 0.88078 0.416869 0.227114
651 1 0.877687 0.229317 0.180293
652 1 0.874603 0.271738 0.18348
653 1 0.883626 0.490734 0.237183
654 1 0.886757 0.423151 0.228931
655 1 0.88381 0.227122 0.185592
656 1 0.880739 0.273181 0.192737
657 1 0.889582 0.489988 0.238785
658 1 0.892548 0.424799 0.223373
659 1 0.889597 0.23312 0.19403
660 1 0.886689 0.277157 0.202878
661 1 0.895691 0.493437 0.229825
662 1 0.898694 0.427762 0.210681
663 1 0.895745 0.234464 0.184134
664 1 0.892729 0.271837 0.192484
665 1 0.90171 0.49441 0.231148
666 1 0.904829 0.427154 0.227093
667 1 0.901795 0.235246 0.188381
668 1 0.898802 0.279178 0.18649
669 1 0.907825 0.501815 0.236019
670 1 0.9108 0.435008 0.225385
671 1 0.907833 0.237951 0.18795
672 1 0.904777 0.279066 0.193968
673 1 0.913735 0.502646 0.225944
674 1 0.916802 0.435052 0.228269
675 1 0.913748 0.240823 0.195081
676 1 0.91073 0.286368 0.199503
677 1 0.919813 0.500956 0.232721
678 1 0.922847 0.432239 0.220737
679 1 0.919853 0.24384 0.200671
680 1 0.916812 0.28151 0.208824
681 1 0.925814 0.49738 0.234148
682 1 0.928724 0.421908 0.234891
683 1 0.925712 0.228762 0.207737
684 1 0.922779 0.281817 0.211029
685 1 0.931747 0.491106 0.23481
686 1 0.934692 0.42139 0.221265
687 1 0.93181 0.215962 0.204447
688 1 0.928721 0.268121 0.222067
689 1 0.93783 0.483806 0.230081
690 1 0.940954 0.415902 0.218972
691 1 0.937765 0.221746 0.195236
692 1 0.934731 0.266987 0.201204
693 1 0.94387 0.484552 0.225749
694 1 0.946847 0.415154 0.229016
695 1 0.943741 0.218227 0.207206
696 1 0.940793 0.262391 0.20314
697 1 0.949764 0.489053 0.231222
698 1 0.952812 0.422675 0.227255
699 1 0.949664 0.222107 0.217764
700 1 0.946694 0.260827 0.212054
701 1 0.955852 0.491984 0.237557
702 1 0.958847 0.422265 0.235468
703 1 0.955917 0.228573 0.215924
704 1 0.952706 0.268559 0.221362
705 1 0.961765 0.490754 0.239997
706 1 0.964786 0.418625 0.240308
707 1 0.961871 0.23046 0.218446
708 1 0.958845 0.271428 0.220445
709 1 0.967797 0.495657 0.245325
710 1 0.970869 0.429406 0.248915
711 1 0.967835 0.227182 0.232847
712 1 0.96478 0.271193 0.228065
713 1 0.973816 0.504859 0.253927
714 1 0.976887 0.440502 0.257289
715 1 0.973755 0.243058 0.233438
716 1 0.970724 0.276179 0.241334
717 1 0.97985 0.509506 0.254769
718 1 0.982812 0.443348 0.257162
719 1 0.97988 0.241301 0.239013
720 1 0.976843 0.286318 0.238196
721 1 0.985818 0.511218 0.257694
722 1 0.988713 0.446665 0.246976
723 1 0.985782 0.246531 0.242865
724 1 0.982825 0.292421 0.249486
725 1 0.991591 0.517697 0.249477
726 1 0.994479 0.447943 0.250125
727 1 0.991678 0.256022 0.245862
728 1 0.988773 0.296513 0.242699
729 1 0.00846428 0.917482 0.253659
730 1 0.0114029 0.874069 0.257204
731 1 0.00848343 0.656706 0.251488
732 1 0.00559737 0.728773 0.249986
733 1 0.0144383 0.912472 0.26461
734 1 0.0174395 0.873106 0.25702
735 1 0.0144458 0.649944 0.259649
736 1 0.0114175 0.723438 0.254614
737 1 0.0203939 0.913936 0.25451
738 1 0.0233884 0.873101 0.247194
739 1 0.0204298 0.656714 0.253039
740 1 0.0174295 0.722884 0.2497
741 1 0.0263888 0.915445 0.239944
742 1 0.0294006 0.873281 0.244025
743 1 0.0263919 0.65284 0.260073
744 1 0.0234481 0.720279 0.257334
745 1 0.0323814 0.914412 0.238173
746 1 0.0353678 0.869769 0.241087
747 1 0.0324307 0.654822 0.254113
748 1 0.029425 0.723759 0.253924
749 1 0.0383131 0.921623 0.227349
750 1 0.0413889 0.878417 0.220876
751 1 0.038365 0.652955 0.234996
752 1 0.0354707 0.720928 0.245655
753 1 0.0444429 0.91846 0.221104
754 1 0.0474355 0.876786 0.216904
755 1 0.0443761 0.653331 0.236519
756 1 0.0413382 0.722216 0.22851
757 1 0.0505224 0.915519 0.225862
758 1 0.053517 0.866935 0.230503
759 1 0.0505388 0.651667 0.240334
760 1 0.0475388 0.722236 0.224688
761 1 0.0565011 0.910505 0.224064
762 1 0.0595339 0.873416 0.221805
763 1 0.0565954 0.648067 0.240983
764 1 0.053562 0.720278 0.238917
765 1 0.0625382 0.910512 0.213902
766 1 0.0654339 0.869237 0.217431
767 1 0.0625718 0.652653 0.238251
768 1 0.0595469 0.715885 0.229696
769 1 0.068421 0.912806 0.216442
770 1 0.0716417 0.868974 0.22349
771 1 0.0684961 0.649127 0.245675
772 1 0.0655326 0.715914 0.233378
773 1 0.0745284 0.910853 0.206439
774 1 0.0774685 0.866226 0.212335
775 1 0.0745011 0.645529 0.244227
776 1 0.0714137 0.717711 0.241622
777 1 0.0805197 0.9126 0.205622
778 1 0.0835137 0.866207 0.207911
779 1 0.0803869 0.651945 0.238008
780 1 0.0774336 0.713029 0.231611
781 1 0.0864948 0.905472 0.196497
782 1 0.0894434 0.856349 0.201642
783 1 0.0863145 0.645867 0.23552
784 1 0.083332 0.718827 0.222668
785 1 0.0924796 0.90299 0.195733
786 1 0.0954154 0.859185 0.203541
787 1 0.0924149 0.639903 0.243784
788 1 0.0894539 0.71379 0.230824
789 1 0.098383 0.903206 0.200099
790 1 0.101491 0.861768 0.210367
791 1 0.0984069 0.637946 0.230323
792 1 0.0953327 0.706759 0.232228
793 1 0.104422 0.899874 0.203731
794 1 0.107423 0.854802 0.205937
795 1 0.104387 0.637753 0.237024
796 1 0.10143 0.708165 0.222512
797 1 0.110305 0.901611 0.196371
798 1 0.113374 0.861161 0.208531
799 1 0.110454 0.634584 0.243549
800 1 0.10731 0.705665 0.231267
801 1 0.116361 0.899445 0.203661
802 1 0.119311 0.854374 0.200221
803 1 0.116405 0.643348 0.243969
804 1 0.113373 0.704352 0.229492
805 1 0.122331 0.89569 0.193494
806 1 0.125255 0.854075 0.201545
807 1 0.122268 0.637274 0.246482
808 1 0.119391 0.708237 0.231488
809 1 0.128336 0.895466 0.182545
810 1 0.131386 0.858362 0.191846
811 1 0.128397 0.63408 0.22675
812 1 0.125338 0.704192 0.230664
813 1 0.134458 0.902107 0.192074
814 1 0.137587 0.862249 0.196591
815 1 0.134426 0.639321 0.225438
816 1 0.131354 0.707028 0.215253
817 1 0.140527 0.908734 0.186852
818 1 0.143451 0.860361 0.187124
819 1 0.140398 0.64363 0.219372
820 1 0.137375 0.708213 0.219008
821 1 0.146503 0.894783 0.166219
822 1 0.149499 0.853582 0.170839
823 1 0.146433 0.639821 0.220297
824 1 0.143467 0.71287 0.207338
825 1 0.152413 0.892861 0.156617
826 1 0.155395 0.848414 0.163446
827 1 0.152552 0.633605 0.214344
828 1 0.149535 0.704926 0.201912
829 1 0.158591 0.893094 0.158363
830 1 0.161638 0.849885 0.176878
831 1 0.158417 0.636914 0.217121
832 1 0.155449 0.699247 0.199536
833 1 0.164577 0.892272 0.164737
834 1 0.167573 0.84867 0.170648
835 1 0.164388 0.638269 0.224184
836 1 0.161538 0.704775 0.20655
837 1 0.170565 0.887955 0.172154
838 1 0.173511 0.84771 0.179756
839 1 0.1705 0.635914 0.217608
840 1 0.167399 0.701371 0.207267
841 1 0.176527 0.885477 0.158659
842 1 0.179556 0.844227 0.170125
843 1 0.176401 0.633813 0.224285
844 1 0.173473 0.703111 0.206055
845 1 0.182576 0.892606 0.165266
846 1 0.185623 0.84692 0.173599
847 1 0.182356 0.629906 0.224137
848 1 0.179411 0.704037 0.204073
849 1 0.188664 0.885798 0.168887
850 1 0.191537 0.840032 0.183047
851 1 0.18848 0.626645 0.235501
852 1 0.185546 0.697144 0.209738
853 1 0.194399 0.880463 0.172048
854 1 0.197463 0.839385 0.192635
855 1 0.194506 0.627141 0.232947
856 1 0.191488 0.696683 0.220196
857 1 0.200449 0.885725 0.186021
858 1 0.203625 0.84408 0.19102
859 1 0.200469 0.633165 0.238302
860 1 0.197376 0.696151 0.219595
861 1 0.206512 0.888911 0.172771
862 1 0.209565 0.850703 0.178024
863 1 0.206489 0.640063 0.241026
864 1 0.20342 0.699353 0.228901
865 1 0.212528 0.899449 0.164166
866 1 0.215646 0.850921 0.168283
867 1 0.212423 0.640218 0.222891
868 1 0.209524 0.711249 0.216652
869 1 0.21861 0.883878 0.154521
870 1 0.221641 0.840869 0.156683
871 1 0.218448 0.6309 0.212519
872 1 0.215506 0.703415 0.204522
873 1 0.22464 0.877248 0.143736
874 1 0.227647 0.843046 0.154743
875 1 0.224537 0.625902 0.211486
876 1 0.221532 0.69485 0.193248
877 1 0.230625 0.893488 0.145916
878 1 0.233571 0.84973 0.163098
879 1 0.230557 0.627015 0.221082
880 1 0.227519 0.694413 0.193534
881 1 0.236518 0.888743 0.144328
882 1 0.239476 0.845425 0.153853
883 1 0.236528 0.631342 0.223762
884 1 0.233512 0.69845 0.203297
885 1 0.242505 0.87575 0.136653
886 1 0.245501 0.834463 0.156001
887 1 0.242703 0.626948 0.222732
888 1 0.239699 0.702069 0.208919
889 1 0.248535 0.874302 0.141108
890 1 0.25155 0.83168 0.150102
891 1 0.248531 0.624513 0.216395
892 1 0.245628 0.689199 0.196569
893 1 0.254513 0.872257 0.133549
894 1 0.257627 0.829837 0.141595
895 1 0.254606 0.623504 0.215146
896 1 0.251611 0.687739 0.196485
897 1 0.260584 0.877585 0.141151
898 1 0.263558 0.834313 0.154589
899 1 0.260666 0.619543 0.214349
900 1 0.257674 0.68711 0.189842
901 1 0.266553 0.873336 0.14543
902 1 0.269636 0.837139 0.153699
903 1 0.266641 0.623628 0.216088
904 1 0.263574 0.682859 0.189603
905 1 0.272611 0.874547 0.135365
906 1 0.275555 0.834217 0.148836
907 1 0.272739 0.637177 0.228813
908 1 0.269547 0.694043 0.202229