ITEM: TIMESTEP
248000
ITEM: NUMBER OF ATOMS
1456
ITEM: BOX BOUNDS ss ss ss
-0.0399323 450.859
6.49031 16.9213
6.96576 18.2324
ITEM: ATOMS id type xs ys zs
1 1 0.00284451 0.563573 0.266725
2 1 0.00554377 0.493995 0.266721
3 1 0.00280934 0.292083 0.266714
4 1 9.75903e-05 0.357819 0.266728
5 1 0.0028323 0.97124 0.266715
6 1 0.00554385 0.903665 0.266769
7 1 0.00279522 0.69915 0.266723
8 1 9.93955e-05 0.767001 0.266723
9 1 0.00860729 0.555207 0.267149
10 1 0.0115363 0.486506 0.266488
11 1 0.00862993 0.303413 0.264279
12 1 0.00571557 0.344644 0.265954
13 1 0.0144754 0.552195 0.26408
14 1 0.0176465 0.481843 0.264489
15 1 0.0146425 0.301021 0.268994
16 1 0.0115556 0.344328 0.263625
17 1 0.0205791 0.549112 0.257557
18 1 0.0235514 0.482051 0.252231
19 1 0.0207766 0.30062 0.260792
20 1 0.0178153 0.337903 0.267193
21 1 0.0265533 0.551473 0.253194
22 1 0.0295903 0.487462 0.251115
23 1 0.026723 0.298919 0.250757
24 1 0.0237278 0.340173 0.253818
25 1 0.0326337 0.54894 0.253198
26 1 0.0357152 0.480606 0.246754
27 1 0.0326252 0.299483 0.245666
28 1 0.0296698 0.344013 0.245882
29 1 0.0387931 0.551566 0.242595
30 1 0.0417515 0.481747 0.233121
31 1 0.0386212 0.293056 0.230184
32 1 0.0356785 0.336189 0.239995
33 1 0.0446881 0.55106 0.240734
34 1 0.0476811 0.487026 0.237018
35 1 0.0447073 0.301105 0.224367
36 1 0.0416686 0.337023 0.227039
37 1 0.0507437 0.550969 0.243803
38 1 0.0537648 0.485219 0.240168
39 1 0.0507939 0.301871 0.224625
40 1 0.0477286 0.34427 0.226476
41 1 0.0568082 0.551504 0.243042
42 1 0.059887 0.486788 0.240539
43 1 0.0567617 0.301899 0.215503
44 1 0.0537893 0.340536 0.221586
45 1 0.0628398 0.553233 0.235982
46 1 0.0657044 0.489685 0.2281
47 1 0.0627669 0.306442 0.216447
48 1 0.0596405 0.344278 0.22336
49 1 0.0686409 0.555314 0.233005
50 1 0.0716343 0.487538 0.227917
51 1 0.0686504 0.305506 0.223077
52 1 0.0657405 0.349994 0.219767
53 1 0.0746284 0.551862 0.229917
54 1 0.0775565 0.485269 0.234857
55 1 0.0746507 0.301909 0.226013
56 1 0.0716768 0.345422 0.224076
57 1 0.080533 0.552417 0.233778
58 1 0.0835637 0.482829 0.24301
59 1 0.0806918 0.303267 0.24116
60 1 0.0776714 0.341598 0.230452
61 1 0.0866032 0.546474 0.243222
62 1 0.0895485 0.479299 0.242684
63 1 0.0866999 0.297859 0.25194
64 1 0.0836557 0.339892 0.242544
65 1 0.0926792 0.546399 0.237336
66 1 0.0957013 0.482731 0.237364
67 1 0.0927576 0.299958 0.250187
68 1 0.0897147 0.339949 0.249897
69 1 0.0987426 0.548105 0.23844
70 1 0.101826 0.48553 0.247404
71 1 0.0987667 0.303776 0.265538
72 1 0.0957191 0.335696 0.249531
73 1 0.104932 0.547349 0.243199
74 1 0.107893 0.479089 0.254921
75 1 0.104776 0.298726 0.275622
76 1 0.101727 0.34473 0.264032
77 1 0.11078 0.547259 0.254237
78 1 0.113693 0.48308 0.267934
79 1 0.110636 0.300073 0.285932
80 1 0.107761 0.342445 0.273962
81 1 0.11678 0.549077 0.263289
82 1 0.119688 0.483756 0.27859
83 1 0.116621 0.299386 0.295093
84 1 0.113602 0.341797 0.28842
85 1 0.122699 0.54834 0.271045
86 1 0.125767 0.480357 0.279547
87 1 0.122637 0.300017 0.294292
88 1 0.119609 0.343362 0.291056
89 1 0.128758 0.548705 0.267278
90 1 0.131844 0.486412 0.278066
91 1 0.128805 0.301669 0.303398
92 1 0.125668 0.340478 0.293305
93 1 0.134649 0.546362 0.253546
94 1 0.137642 0.476854 0.251405
95 1 0.134634 0.299437 0.309637
96 1 0.131769 0.348784 0.309124
97 1 0.14061 0.544898 0.252204
98 1 0.143676 0.478927 0.274
99 1 0.140531 0.296747 0.290684
100 1 0.137591 0.337669 0.283541
101 1 0.146689 0.543814 0.269418
102 1 0.149665 0.477091 0.285651
103 1 0.146599 0.292243 0.294036
104 1 0.143642 0.334344 0.28964
105 1 0.152645 0.543696 0.274939
106 1 0.155639 0.473884 0.280571
107 1 0.152639 0.285765 0.293505
108 1 0.14961 0.332022 0.29986
109 1 0.158778 0.542639 0.264502
110 1 0.161661 0.47191 0.268031
111 1 0.15882 0.290288 0.295147
112 1 0.155757 0.329474 0.288889
113 1 0.164544 0.544748 0.262486
114 1 0.167759 0.473225 0.273952
115 1 0.164853 0.294377 0.292796
116 1 0.16182 0.330518 0.288039
117 1 0.170689 0.538452 0.264268
118 1 0.173736 0.472242 0.269593
119 1 0.170839 0.289349 0.29944
120 1 0.167865 0.333962 0.288231
121 1 0.176769 0.53868 0.252803
122 1 0.1798 0.46824 0.261825
123 1 0.176819 0.29118 0.301484
124 1 0.173832 0.334428 0.29533
125 1 0.182728 0.531677 0.24867
126 1 0.185708 0.470151 0.270012
127 1 0.182802 0.293017 0.305999
128 1 0.179853 0.330008 0.29107
129 1 0.188682 0.523689 0.256784
130 1 0.191753 0.455835 0.265687
131 1 0.188876 0.283662 0.300301
132 1 0.185923 0.326492 0.29371
133 1 0.194812 0.522375 0.251318
134 1 0.197754 0.458661 0.265724
135 1 0.194836 0.273484 0.302834
136 1 0.191901 0.317016 0.295504
137 1 0.200869 0.527772 0.25234
138 1 0.203916 0.461753 0.271149
139 1 0.200963 0.2818 0.311374
140 1 0.197821 0.315023 0.289652
141 1 0.20692 0.534246 0.265047
142 1 0.209885 0.470384 0.277274
143 1 0.207053 0.287596 0.316834
144 1 0.204005 0.323065 0.309898
145 1 0.212915 0.53448 0.257244
146 1 0.215884 0.464675 0.26893
147 1 0.212926 0.291699 0.311999
148 1 0.210008 0.334369 0.301865
149 1 0.218812 0.525809 0.244466
150 1 0.221752 0.470326 0.266949
151 1 0.218743 0.282447 0.311513
152 1 0.215844 0.330053 0.301688
153 1 0.224687 0.533846 0.25478
154 1 0.227787 0.470685 0.267995
155 1 0.224753 0.288578 0.30695
156 1 0.221738 0.327153 0.301668
157 1 0.230829 0.533777 0.256558
158 1 0.233807 0.459385 0.262529
159 1 0.230752 0.286155 0.315153
160 1 0.227793 0.329533 0.301975
161 1 0.236873 0.522467 0.251472
162 1 0.239765 0.456575 0.26274
163 1 0.236834 0.274094 0.307803
164 1 0.233817 0.320153 0.295608
165 1 0.242743 0.526194 0.252943
166 1 0.245724 0.462877 0.264111
167 1 0.242851 0.275723 0.296077
168 1 0.239762 0.316759 0.292877
169 1 0.248814 0.526594 0.251805
170 1 0.251753 0.463435 0.262987
171 1 0.248926 0.289953 0.30203
172 1 0.245858 0.318099 0.28979
173 1 0.254657 0.53251 0.255386
174 1 0.257784 0.476316 0.277783
175 1 0.25492 0.293697 0.333632
176 1 0.251937 0.328422 0.303356
177 1 0.26078 0.541614 0.256948
178 1 0.263898 0.480882 0.27986
179 1 0.260805 0.301189 0.321558
180 1 0.257867 0.338211 0.320896
181 1 0.266847 0.548876 0.264965
182 1 0.269913 0.490528 0.277622
183 1 0.266827 0.305476 0.318651
184 1 0.2638 0.343648 0.312139
185 1 0.272884 0.555604 0.264204
186 1 0.275925 0.487298 0.275253
187 1 0.272834 0.312859 0.322815
188 1 0.269885 0.350245 0.306316
189 1 0.278887 0.55273 0.263393
190 1 0.281952 0.491277 0.282339
191 1 0.278749 0.313647 0.322478
192 1 0.275788 0.350954 0.311717
193 1 0.284891 0.550177 0.268452
194 1 0.288014 0.487595 0.276994
195 1 0.284829 0.307989 0.315367
196 1 0.281763 0.353117 0.311014
197 1 0.290936 0.553199 0.261678
198 1 0.293805 0.488213 0.272885
199 1 0.290957 0.304634 0.303554
200 1 0.287917 0.343592 0.300675
201 1 0.296807 0.551246 0.266938
202 1 0.299802 0.483577 0.271809
203 1 0.296799 0.302109 0.290764
204 1 0.293886 0.345752 0.289055
205 1 0.302819 0.546819 0.266201
206 1 0.305777 0.474806 0.27279
207 1 0.30272 0.302365 0.29729
208 1 0.299678 0.338999 0.297713
209 1 0.308774 0.543218 0.253408
210 1 0.311876 0.469878 0.263636
211 1 0.308744 0.288115 0.296595
212 1 0.305786 0.334515 0.294221
213 1 0.314923 0.532939 0.252237
214 1 0.317976 0.467354 0.265811
215 1 0.314737 0.291919 0.296437
216 1 0.311737 0.333365 0.291039
217 1 0.320935 0.530107 0.252886
218 1 0.323927 0.459431 0.263821
219 1 0.320778 0.283349 0.304987
220 1 0.317818 0.321867 0.287513
221 1 0.326843 0.52225 0.254348
222 1 0.329911 0.462703 0.274011
223 1 0.326769 0.286633 0.303223
224 1 0.323858 0.322194 0.297824
225 1 0.332899 0.527655 0.252732
226 1 0.33595 0.464709 0.268783
227 1 0.332816 0.288268 0.307775
228 1 0.329799 0.325056 0.299441
229 1 0.339111 0.526109 0.255731
230 1 0.341972 0.469123 0.280319
231 1 0.338925 0.29126 0.32087
232 1 0.335894 0.327471 0.306966
233 1 0.344967 0.534811 0.276243
234 1 0.347845 0.467045 0.294942
235 1 0.344894 0.290919 0.332398
236 1 0.341866 0.329091 0.31133
237 1 0.350943 0.531681 0.276496
238 1 0.353892 0.466058 0.298717
239 1 0.350988 0.296302 0.355782
240 1 0.347944 0.332644 0.332096
241 1 0.356928 0.528329 0.288032
242 1 0.359918 0.47138 0.309445
243 1 0.35694 0.297092 0.370826
244 1 0.353943 0.328036 0.339601
245 1 0.363066 0.535983 0.290393
246 1 0.366003 0.467497 0.321835
247 1 0.362852 0.303152 0.383618
248 1 0.359882 0.337936 0.363706
249 1 0.36909 0.524955 0.300634
250 1 0.371899 0.45814 0.323178
251 1 0.368704 0.293 0.389105
252 1 0.36582 0.338339 0.376452
253 1 0.375013 0.512442 0.298125
254 1 0.377971 0.451643 0.316163
255 1 0.3748 0.286597 0.383774
256 1 0.37177 0.324571 0.373875
257 1 0.381023 0.505459 0.286646
258 1 0.384086 0.445371 0.313506
259 1 0.380897 0.273764 0.381115
260 1 0.377916 0.313651 0.365215
261 1 0.386976 0.505427 0.286819
262 1 0.389973 0.445704 0.314518
263 1 0.386975 0.275478 0.386365
264 1 0.383905 0.30898 0.367974
265 1 0.39305 0.509953 0.298373
266 1 0.396096 0.457058 0.333468
267 1 0.393014 0.279728 0.386843
268 1 0.389911 0.314335 0.365148
269 1 0.399023 0.518693 0.308503
270 1 0.402082 0.454275 0.328607
271 1 0.399 0.276191 0.384225
272 1 0.395942 0.322032 0.374577
273 1 0.40499 0.514517 0.299948
274 1 0.408052 0.454481 0.323696
275 1 0.404929 0.279865 0.387689
276 1 0.401893 0.320037 0.374991
277 1 0.411084 0.509607 0.295134
278 1 0.414037 0.439307 0.308603
279 1 0.410925 0.27539 0.371696
280 1 0.408044 0.321983 0.366333
281 1 0.416997 0.497566 0.28736
282 1 0.420052 0.436908 0.303446
283 1 0.41704 0.268471 0.369246
284 1 0.413953 0.30465 0.346706
285 1 0.423221 0.503062 0.291691
286 1 0.426222 0.440011 0.313085
287 1 0.42297 0.275594 0.367167
288 1 0.420012 0.307809 0.355948
289 1 0.429188 0.499267 0.290854
290 1 0.432297 0.429164 0.30564
291 1 0.429038 0.263216 0.363286
292 1 0.425978 0.308966 0.364002
293 1 0.435267 0.486472 0.274434
294 1 0.438248 0.424874 0.2952
295 1 0.435024 0.256685 0.364382
296 1 0.432111 0.297807 0.354257
297 1 0.441341 0.488121 0.291772
298 1 0.444174 0.422021 0.311045
299 1 0.441108 0.250575 0.370198
300 1 0.43815 0.290959 0.353271
301 1 0.447272 0.480952 0.289961
302 1 0.450183 0.415629 0.312362
303 1 0.447103 0.245951 0.365032
304 1 0.444205 0.286342 0.349514
305 1 0.453338 0.474932 0.285965
306 1 0.456176 0.409495 0.309743
307 1 0.452998 0.240966 0.386527
308 1 0.450102 0.283407 0.358431
309 1 0.459364 0.46022 0.290075
310 1 0.462201 0.399283 0.314333
311 1 0.459065 0.240888 0.391812
312 1 0.456046 0.279382 0.370354
313 1 0.465248 0.456329 0.289161
314 1 0.468055 0.397201 0.321306
315 1 0.464956 0.240457 0.404851
316 1 0.462086 0.273527 0.378044
317 1 0.47116 0.451483 0.306333
318 1 0.474037 0.385814 0.336469
319 1 0.470849 0.228077 0.411667
320 1 0.46797 0.271293 0.384624
321 1 0.477234 0.438643 0.309922
322 1 0.479996 0.371911 0.346894
323 1 0.476785 0.213752 0.412225
324 1 0.473881 0.261169 0.398208
325 1 0.482948 0.430066 0.342656
326 1 0.4856 0.363608 0.370065
327 1 0.482576 0.19321 0.403965
328 1 0.479675 0.236914 0.394317
329 1 0.488741 0.409678 0.377776
330 1 0.491174 0.349674 0.435643
331 1 0.488111 0.198687 0.440667
332 1 0.485343 0.233393 0.39644
333 1 0.494291 0.382226 0.45876
334 1 0.496225 0.335556 0.554098
335 1 0.492856 0.19568 0.57229
336 1 0.490764 0.228628 0.485727
337 1 0.499307 0.375366 0.573766
338 1 0.500811 0.367256 0.682763
339 1 0.497247 0.234533 0.733719
340 1 0.495323 0.234144 0.636744
341 1 0.503747 0.418268 0.711693
342 1 0.504799 0.450434 0.831429
343 1 0.501289 0.318837 0.880729
344 1 0.499778 0.289919 0.774912
345 1 0.507242 0.545181 0.85149
346 1 0.507 0.653752 0.936879
347 1 0.503512 0.505547 1.01607
348 1 0.503266 0.401031 0.937642
349 1 0.508013 0.777555 0.888988
350 1 0.505598 0.867331 0.843025
351 1 0.502757 0.749973 0.982921
352 1 0.504217 0.639782 1.01489
353 1 0.505889 0.925823 0.722007
354 1 0.503431 0.92755 0.637485
355 1 0.50059 0.874907 0.792865
356 1 0.502557 0.843769 0.890005
357 1 0.503745 0.934456 0.50551
358 1 0.50131 0.900952 0.412141
359 1 0.498325 0.890645 0.580405
360 1 0.500343 0.900297 0.673344
361 1 0.501872 0.861562 0.28652
362 1 0.499411 0.825753 0.209526
363 1 0.496193 0.867337 0.360221
364 1 0.498151 0.890202 0.45677
365 1 0.499781 0.737254 0.0990685
366 1 0.497389 0.657604 0.0375909
367 1 0.494532 0.793063 0.148503
368 1 0.496328 0.83807 0.240277
369 1 0.497748 0.518441 0.0155704
370 1 0.495125 0.420713 0.0440277
371 1 0.492323 0.605799 0.0184604
372 1 0.494226 0.709864 0.0509946
373 1 0.495606 0.303403 0.116902
374 1 0.493218 0.227653 0.176053
375 1 0.490191 0.384108 0.0784813
376 1 0.492158 0.472274 0.0308498
377 1 0.493542 0.126137 0.277283
378 1 0.491073 0.0627636 0.343539
379 1 0.488192 0.170319 0.20116
380 1 0.489965 0.263092 0.143596
381 1 0.491356 0.023955 0.473388
382 1 0.488738 0.0373331 0.550921
383 1 0.48592 0.0340959 0.379666
384 1 0.488104 0.0762379 0.291216
385 1 0.489472 0.103238 0.666685
386 1 0.488809 0.243271 0.666253
387 1 0.484794 0.166258 0.571072
388 1 0.485626 0.0429614 0.504116
389 1 0.491068 0.336871 0.693175
390 1 0.491847 0.459786 0.62977
391 1 0.487138 0.408099 0.552523
392 1 0.486096 0.286203 0.602956
393 1 0.494647 0.526144 0.62648
394 1 0.496195 0.596989 0.530269
395 1 0.491376 0.581853 0.467128
396 1 0.489509 0.501572 0.542064
397 1 0.499364 0.615354 0.523276
398 1 0.501442 0.633537 0.420365
399 1 0.496804 0.66594 0.34409
400 1 0.494314 0.636133 0.433447
401 1 0.504944 0.638382 0.407
402 1 0.507321 0.612821 0.312097
403 1 0.50278 0.626596 0.226215
404 1 0.50007 0.654406 0.304139
405 1 0.51074 0.619335 0.319722
406 1 0.513407 0.57327 0.249996
407 1 0.509458 0.497907 0.156364
408 1 0.506189 0.567543 0.197438
409 1 0.516828 0.585943 0.281894
410 1 0.519578 0.540271 0.219202
411 1 0.515907 0.441668 0.11255
412 1 0.512715 0.485248 0.147814
413 1 0.522877 0.575416 0.258623
414 1 0.525705 0.5177 0.215327
415 1 0.522155 0.401545 0.0938571
416 1 0.519136 0.447239 0.120579
417 1 0.529054 0.556086 0.257295
418 1 0.531896 0.512143 0.1996
419 1 0.528532 0.386159 0.0797644
420 1 0.525381 0.418301 0.115746
421 1 0.53493 0.54751 0.238602
422 1 0.537944 0.505299 0.185761
423 1 0.534618 0.389481 0.0606797
424 1 0.531641 0.422569 0.0977878
425 1 0.541003 0.549012 0.233856
426 1 0.543929 0.51273 0.182025
427 1 0.540908 0.399844 0.0476365
428 1 0.537771 0.410074 0.0850885
429 1 0.547051 0.550566 0.224994
430 1 0.550065 0.51116 0.174079
431 1 0.546874 0.392229 0.049777
432 1 0.543955 0.426424 0.0748353
433 1 0.553093 0.561713 0.211613
434 1 0.556024 0.501975 0.16931
435 1 0.552927 0.372906 0.0467456
436 1 0.550028 0.406386 0.0767658
437 1 0.55904 0.542645 0.217872
438 1 0.561984 0.498453 0.17511
439 1 0.558945 0.378543 0.042323
440 1 0.555872 0.400756 0.0726624
441 1 0.565009 0.533939 0.221568
442 1 0.56803 0.494771 0.179438
443 1 0.564919 0.386962 0.0459537
444 1 0.561943 0.404233 0.0768432
445 1 0.571042 0.544167 0.218161
446 1 0.574013 0.495562 0.172389
447 1 0.570958 0.376552 0.0463585
448 1 0.567881 0.405702 0.0761312
449 1 0.577105 0.54013 0.222614
450 1 0.580084 0.495234 0.175009
451 1 0.576893 0.363573 0.0524821
452 1 0.573977 0.398529 0.0750888
453 1 0.582988 0.546163 0.215518
454 1 0.585939 0.49185 0.176417
455 1 0.582855 0.357475 0.0585548
456 1 0.579828 0.391726 0.080319
457 1 0.588897 0.541308 0.221561
458 1 0.591909 0.492935 0.17711
459 1 0.588901 0.363341 0.0590171
460 1 0.5859 0.389863 0.0845947
461 1 0.594912 0.537904 0.217827
462 1 0.597999 0.488474 0.173405
463 1 0.594937 0.354765 0.0541397
464 1 0.591943 0.387776 0.0864002
465 1 0.601003 0.540271 0.213281
466 1 0.603914 0.490019 0.171815
467 1 0.600928 0.361732 0.0510898
468 1 0.598036 0.388075 0.0841168
469 1 0.606909 0.535822 0.208774
470 1 0.609898 0.485247 0.16941
471 1 0.606813 0.351343 0.0633358
472 1 0.603899 0.38377 0.0831604
473 1 0.613076 0.531443 0.206369
474 1 0.616113 0.481133 0.166076
475 1 0.612927 0.334528 0.0651393
476 1 0.60986 0.371751 0.0895505
477 1 0.619047 0.52801 0.214059
478 1 0.622054 0.479103 0.173267
479 1 0.619016 0.336764 0.0586185
480 1 0.616034 0.368231 0.0847164
481 1 0.624983 0.524354 0.212572
482 1 0.627958 0.465868 0.178042
483 1 0.625078 0.329393 0.0695427
484 1 0.622009 0.366226 0.0888251
485 1 0.631076 0.523583 0.221582
486 1 0.634124 0.467858 0.184313
487 1 0.631002 0.325451 0.0780612
488 1 0.628152 0.358231 0.0984353
489 1 0.637044 0.525185 0.216213
490 1 0.640263 0.480773 0.172165
491 1 0.637076 0.339264 0.0660532
492 1 0.634003 0.363831 0.0994574
493 1 0.643151 0.535833 0.215041
494 1 0.646189 0.489744 0.170412
495 1 0.643232 0.336342 0.0657396
496 1 0.640125 0.366867 0.0926933
497 1 0.649116 0.540189 0.207108
498 1 0.652094 0.487951 0.169869
499 1 0.649203 0.341805 0.0667327
500 1 0.646243 0.375906 0.0903476
501 1 0.655098 0.5351 0.216531
502 1 0.658095 0.484557 0.175597
503 1 0.655123 0.343455 0.0659529
504 1 0.652104 0.373125 0.0848162
505 1 0.661186 0.523976 0.223546
506 1 0.66412 0.475053 0.180002
507 1 0.661172 0.343661 0.064747
508 1 0.658108 0.374156 0.08867
509 1 0.666991 0.534418 0.214949
510 1 0.670041 0.479733 0.179524
511 1 0.667155 0.335007 0.0721687
512 1 0.664303 0.36822 0.0967007
513 1 0.673191 0.535494 0.21972
514 1 0.676216 0.482347 0.183394
515 1 0.673207 0.335031 0.0823987
516 1 0.670197 0.367846 0.0982421
517 1 0.679204 0.530293 0.222158
518 1 0.682237 0.469258 0.194593
519 1 0.679112 0.326795 0.0891493
520 1 0.676182 0.362695 0.110126
521 1 0.685108 0.525158 0.227097
522 1 0.688179 0.46935 0.192149
523 1 0.685146 0.317434 0.0985435
524 1 0.682125 0.353195 0.121369
525 1 0.69103 0.521724 0.226755
526 1 0.694183 0.472195 0.197733
527 1 0.691069 0.322997 0.0977629
528 1 0.688083 0.350788 0.11598
529 1 0.697205 0.525262 0.233003
530 1 0.700163 0.474228 0.192227
531 1 0.697142 0.315758 0.0950442
532 1 0.694096 0.352286 0.121308
533 1 0.703158 0.526632 0.2303
534 1 0.706265 0.471882 0.19289
535 1 0.703124 0.326546 0.0817805
536 1 0.70014 0.357755 0.110055
537 1 0.709288 0.525763 0.230489
538 1 0.712225 0.464437 0.191054
539 1 0.709171 0.324442 0.0845099
540 1 0.706087 0.356995 0.108499
541 1 0.715334 0.52332 0.228706
542 1 0.718375 0.46355 0.190714
543 1 0.715335 0.324434 0.0835263
544 1 0.712262 0.352984 0.106613
545 1 0.721289 0.520144 0.22116
546 1 0.724375 0.474088 0.179453
547 1 0.721374 0.325214 0.0763216
548 1 0.718292 0.355154 0.105497
549 1 0.727269 0.526605 0.213275
550 1 0.730315 0.478373 0.173818
551 1 0.727377 0.33108 0.0743684
552 1 0.724389 0.360494 0.091351
553 1 0.733447 0.5364 0.204889
554 1 0.736459 0.486364 0.17291
555 1 0.73344 0.3306 0.0751445
556 1 0.730391 0.358353 0.0998422
557 1 0.739457 0.533407 0.211289
558 1 0.742509 0.48121 0.17624
559 1 0.739339 0.328804 0.0808038
560 1 0.736354 0.366187 0.0980011
561 1 0.745357 0.532752 0.216277
562 1 0.748411 0.470953 0.186393
563 1 0.745376 0.318406 0.085744
564 1 0.742404 0.361802 0.101046
565 1 0.751407 0.529616 0.219147
566 1 0.754487 0.474849 0.183497
567 1 0.751459 0.31204 0.0981216
568 1 0.748416 0.341911 0.120002
569 1 0.757508 0.530235 0.219265
570 1 0.760425 0.476444 0.181656
571 1 0.757273 0.327685 0.0848397
572 1 0.754329 0.361923 0.109758
573 1 0.763489 0.531969 0.212857
574 1 0.76639 0.472456 0.182988
575 1 0.763329 0.318872 0.0898189
576 1 0.760421 0.352553 0.107431
577 1 0.769396 0.527191 0.215553
578 1 0.772504 0.469252 0.187498
579 1 0.769401 0.312649 0.101871
580 1 0.766372 0.350645 0.114187
581 1 0.775479 0.531056 0.207128
582 1 0.778446 0.47585 0.17688
583 1 0.77557 0.318768 0.0920043
584 1 0.772538 0.345762 0.120961
585 1 0.781437 0.53604 0.206134
586 1 0.784469 0.474538 0.170948
587 1 0.781543 0.314 0.0986565
588 1 0.778504 0.35512 0.11575
589 1 0.787522 0.53371 0.201145
590 1 0.79047 0.467215 0.187416
591 1 0.787591 0.294943 0.120301
592 1 0.784648 0.340707 0.119127
593 1 0.793501 0.531644 0.21689
594 1 0.796583 0.470379 0.185193
595 1 0.793533 0.296778 0.117002
596 1 0.790629 0.335708 0.136098
597 1 0.799554 0.531905 0.206921
598 1 0.802506 0.476065 0.171422
599 1 0.799489 0.30624 0.105241
600 1 0.796518 0.341584 0.125278
601 1 0.805454 0.536997 0.193789
602 1 0.808435 0.476665 0.181603
603 1 0.805572 0.304956 0.118685
604 1 0.802491 0.339079 0.116202
605 1 0.811393 0.53432 0.210522
606 1 0.814287 0.469112 0.194718
607 1 0.811697 0.306069 0.107603
608 1 0.808591 0.344461 0.127544
609 1 0.817459 0.52788 0.222207
610 1 0.820501 0.464413 0.2057
611 1 0.817724 0.302523 0.11864
612 1 0.814727 0.338152 0.134119
613 1 0.82369 0.520376 0.231833
614 1 0.826846 0.467608 0.203929
615 1 0.823802 0.302394 0.1309
616 1 0.820725 0.339116 0.145894
617 1 0.829638 0.53274 0.220795
618 1 0.832648 0.467015 0.195105
619 1 0.829911 0.296478 0.134044
620 1 0.826882 0.333334 0.145292
621 1 0.835595 0.530368 0.228456
622 1 0.838686 0.466387 0.215142
623 1 0.835836 0.296128 0.141439
624 1 0.832888 0.335222 0.146561
625 1 0.84164 0.531324 0.236222
626 1 0.844857 0.467438 0.233044
627 1 0.841801 0.293946 0.174864
628 1 0.838748 0.327553 0.17263
629 1 0.847823 0.533234 0.244465
630 1 0.850827 0.469245 0.223887
631 1 0.847974 0.288849 0.18643
632 1 0.844911 0.326083 0.197339
633 1 0.853696 0.537314 0.237764
634 1 0.856725 0.476137 0.232045
635 1 0.853972 0.299257 0.184585
636 1 0.850928 0.331241 0.196499
637 1 0.859717 0.543149 0.250264
638 1 0.862848 0.479213 0.234494
639 1 0.859982 0.30332 0.193352
640 1 0.856996 0.338683 0.19752
641 1 0.86581 0.541911 0.253356
642 1 0.868725 0.484028 0.235738
643 1 0.865845 0.301775 0.196745
644 1 0.862908 0.344751 0.201226
645 1 0.871672 0.550993 0.249702
646 1 0.874624 0.486764 0.233859
647 1 0.871697 0.308109 0.196786
648 1 0.868815 0.345189 0.205411
649 1 0.87762 0.556185 0.242696
650 1 0.880545 0.492985 0.220937
651 1 0.877626 0.312819 0.192281
652 1 0.874654 0.350727 0.20004
653 1 0.883412 0.557609 0.247022
654 1 0.886574 0.497803 0.234661
655 1 0.883629 0.30972 0.207365
656 1 0.880578 0.355288 0.199501
657 1 0.889441 0.564076 0.245728
658 1 0.892506 0.498076 0.236479
659 1 0.889399 0.311708 0.222263
660 1 0.886474 0.353718 0.222775
661 1 0.895493 0.558877 0.250031
662 1 0.898398 0.49151 0.236373
663 1 0.895352 0.307095 0.211573
664 1 0.89238 0.355964 0.219857
665 1 0.901467 0.55747 0.248407
666 1 0.904286 0.485644 0.239509
667 1 0.901295 0.309023 0.20311
668 1 0.898341 0.347456 0.212689
669 1 0.907389 0.552649 0.241753
670 1 0.910505 0.48945 0.227926
671 1 0.907402 0.31135 0.202163
672 1 0.904366 0.347096 0.212189
673 1 0.913524 0.556732 0.250763
674 1 0.916489 0.486211 0.246375
675 1 0.91345 0.311401 0.201338
676 1 0.910473 0.350301 0.203184
677 1 0.919459 0.551094 0.26419
678 1 0.922368 0.485737 0.2547
679 1 0.919546 0.302382 0.218159
680 1 0.916492 0.345238 0.216994
681 1 0.925464 0.554294 0.253895
682 1 0.928431 0.492077 0.244325
683 1 0.925516 0.308146 0.225585
684 1 0.922459 0.342559 0.233658
685 1 0.931477 0.55863 0.244366
686 1 0.93449 0.493352 0.240597
687 1 0.931393 0.309888 0.21186
688 1 0.92851 0.351808 0.227502
689 1 0.937381 0.56252 0.252869
690 1 0.940431 0.49735 0.23896
691 1 0.937447 0.311183 0.205047
692 1 0.934417 0.350734 0.214106
693 1 0.94342 0.562542 0.247073
694 1 0.946452 0.49505 0.240384
695 1 0.943351 0.316601 0.211616
696 1 0.940336 0.354046 0.220518
697 1 0.949417 0.557865 0.247985
698 1 0.952414 0.491189 0.236194
699 1 0.949334 0.304989 0.218077
700 1 0.946307 0.353767 0.222324
701 1 0.955547 0.55529 0.245631
702 1 0.958524 0.493973 0.247634
703 1 0.955388 0.305849 0.231382
704 1 0.952296 0.348081 0.225697
705 1 0.961339 0.555668 0.257407
706 1 0.96434 0.483226 0.254224
707 1 0.961502 0.301515 0.23571
708 1 0.958472 0.345218 0.233311
709 1 0.967352 0.556085 0.266252
710 1 0.970374 0.486685 0.256578
711 1 0.967443 0.30044 0.233302
712 1 0.964434 0.343135 0.242326
713 1 0.97349 0.55144 0.25824
714 1 0.976455 0.488896 0.265964
715 1 0.973555 0.309089 0.249288
716 1 0.970395 0.342221 0.245441
717 1 0.979474 0.559116 0.265844
718 1 0.982516 0.498636 0.265399
719 1 0.979545 0.3146 0.247586
720 1 0.976505 0.350241 0.253926
721 1 0.985476 0.562 0.26847
722 1 0.988566 0.496767 0.263889
723 1 0.985581 0.316055 0.251427
724 1 0.982631 0.354469 0.252323
725 1 0.991496 0.563812 0.266367
726 1 0.994437 0.497973 0.26701
727 1 0.991585 0.316822 0.262784
728 1 0.988627 0.35504 0.25965
729 1 0.00861838 0.941165 0.270513
730 1 0.0116105 0.900188 0.274026
731 1 0.00863789 0.695022 0.26836
732 1 0.00569927 0.763044 0.266872
733 1 0.0146248 0.944604 0.267415
734 1 0.0176491 0.903647 0.258726
735 1 0.0146253 0.692743 0.264757
736 1 0.0116253 0.758009 0.271459
737 1 0.0207521 0.940409 0.25172
738 1 0.0237918 0.898375 0.25068
739 1 0.0205698 0.692622 0.263976
740 1 0.0175993 0.757504 0.265617
741 1 0.0268543 0.94173 0.255746
742 1 0.0296982 0.897418 0.264736
743 1 0.0266291 0.690238 0.256191
744 1 0.023579 0.754441 0.259429
745 1 0.0326623 0.944918 0.266222
746 1 0.0357597 0.901686 0.260428
747 1 0.0325578 0.686572 0.262579
748 1 0.0296041 0.751065 0.262753
749 1 0.0386988 0.940276 0.257891
750 1 0.0416733 0.903149 0.253073
751 1 0.0386069 0.68866 0.254382
752 1 0.0356201 0.754789 0.260507
753 1 0.0446423 0.942566 0.246863
754 1 0.0476669 0.900706 0.246544
755 1 0.0446856 0.693387 0.250031
756 1 0.0416517 0.7576 0.255876
757 1 0.0506863 0.940915 0.245436
758 1 0.0536361 0.900591 0.246863
759 1 0.0507523 0.692149 0.253891
760 1 0.0477377 0.754599 0.25334
761 1 0.0566805 0.941788 0.236672
762 1 0.0598175 0.903409 0.237638
763 1 0.0568656 0.696487 0.254093
764 1 0.0536716 0.759748 0.255836
765 1 0.0627848 0.941241 0.232884
766 1 0.0657399 0.901497 0.233931
767 1 0.0627547 0.693148 0.249789
768 1 0.0597926 0.760168 0.246514
769 1 0.068656 0.944759 0.236606
770 1 0.0716923 0.909862 0.228642
771 1 0.0687921 0.698463 0.236975
772 1 0.0657717 0.758902 0.243656
773 1 0.0746719 0.949384 0.230554
774 1 0.0775472 0.907362 0.23214
775 1 0.074682 0.692392 0.220071
776 1 0.0717243 0.763973 0.222477
777 1 0.080766 0.936959 0.226572
778 1 0.0836141 0.892743 0.226576
779 1 0.0806293 0.689269 0.228901
780 1 0.0776891 0.760879 0.222333
781 1 0.0865346 0.937189 0.223994
782 1 0.0895758 0.895763 0.223222
783 1 0.0866889 0.686683 0.231606
784 1 0.0837449 0.752922 0.226761
785 1 0.0927161 0.936079 0.212959
786 1 0.0957796 0.894746 0.222405
787 1 0.0926932 0.688885 0.234061
788 1 0.0895667 0.7503 0.234088
789 1 0.0988909 0.940668 0.215821
790 1 0.10183 0.896297 0.222306
791 1 0.0986954 0.688674 0.232425
792 1 0.0956366 0.752535 0.231914
793 1 0.10486 0.930102 0.220467
794 1 0.107894 0.893061 0.217959
795 1 0.104835 0.685134 0.230092
796 1 0.101694 0.754204 0.226268
797 1 0.110812 0.937788 0.22338
798 1 0.113702 0.892354 0.223343
799 1 0.110795 0.681823 0.23216
800 1 0.107885 0.749525 0.224157
801 1 0.116726 0.934427 0.218601
802 1 0.11977 0.901132 0.224704
803 1 0.116747 0.685843 0.242715
804 1 0.113759 0.748018 0.232242
805 1 0.122759 0.934588 0.214599
806 1 0.125619 0.887331 0.220171
807 1 0.122701 0.685046 0.247569
808 1 0.119782 0.754287 0.236805
809 1 0.128695 0.93011 0.210298
810 1 0.131762 0.893879 0.216857
811 1 0.128807 0.686414 0.253393
812 1 0.125788 0.75067 0.237258
813 1 0.134801 0.933741 0.207216
814 1 0.137699 0.891039 0.21431
815 1 0.134754 0.686539 0.241117
816 1 0.131795 0.75147 0.241149
817 1 0.140825 0.929826 0.206585
818 1 0.143862 0.888991 0.218715
819 1 0.140726 0.682782 0.244543
820 1 0.137743 0.74885 0.23599
821 1 0.146852 0.93258 0.211754
822 1 0.150017 0.894865 0.219825
823 1 0.146745 0.682501 0.250436
824 1 0.143784 0.75132 0.244781
825 1 0.152976 0.937944 0.213463
826 1 0.155961 0.890884 0.213075
827 1 0.152659 0.684897 0.25628
828 1 0.149674 0.75028 0.244501
829 1 0.158815 0.927745 0.192031
830 1 0.161794 0.887487 0.191116
831 1 0.158717 0.681854 0.252569
832 1 0.15577 0.751276 0.246697
833 1 0.164901 0.918614 0.184295
834 1 0.167746 0.873038 0.198968
835 1 0.16466 0.680625 0.253449
836 1 0.161633 0.75087 0.234753
837 1 0.170742 0.91579 0.190987
838 1 0.173754 0.880051 0.201297
839 1 0.170691 0.676193 0.249069
840 1 0.16768 0.739764 0.244422
841 1 0.17684 0.922902 0.188839
842 1 0.179815 0.883565 0.191512
843 1 0.176773 0.677668 0.234645
844 1 0.173816 0.7424 0.233298
845 1 0.182872 0.915609 0.175192
846 1 0.185871 0.872186 0.172846
847 1 0.182767 0.670176 0.222375
848 1 0.179873 0.742907 0.219022
849 1 0.188916 0.908196 0.166621
850 1 0.191829 0.864828 0.177579
851 1 0.188726 0.667547 0.231031
852 1 0.185711 0.73733 0.212663
853 1 0.194785 0.906229 0.175395
854 1 0.197814 0.866284 0.181619
855 1 0.194807 0.661353 0.219756
856 1 0.191679 0.72544 0.21388
857 1 0.200775 0.909443 0.178326
858 1 0.203834 0.870425 0.183737
859 1 0.200869 0.663575 0.225736
860 1 0.197861 0.723979 0.210637
861 1 0.206822 0.91809 0.181768
862 1 0.209937 0.881443 0.188945
863 1 0.20687 0.67311 0.235061
864 1 0.203906 0.735951 0.217553
865 1 0.212874 0.920015 0.172802
866 1 0.215919 0.875265 0.173666
867 1 0.212836 0.668179 0.222775
868 1 0.209766 0.738289 0.214436
869 1 0.218957 0.91258 0.159682
870 1 0.221961 0.872118 0.176634
871 1 0.21866 0.667874 0.224217
872 1 0.215783 0.734157 0.207606
873 1 0.224895 0.90729 0.170315
874 1 0.227966 0.869497 0.176102
875 1 0.224843 0.672621 0.227308
876 1 0.221889 0.736303 0.213776
877 1 0.230915 0.90786 0.170883
878 1 0.23384 0.86657 0.180473
879 1 0.230935 0.665919 0.232743
880 1 0.227883 0.730093 0.211379
881 1 0.236975 0.90555 0.169967
882 1 0.239907 0.86784 0.179602
883 1 0.236824 0.664706 0.225359
884 1 0.233901 0.730559 0.217474
885 1 0.242786 0.90601 0.166848
886 1 0.245791 0.861868 0.173097
887 1 0.242648 0.660559 0.222574
888 1 0.239778 0.731578 0.20674
889 1 0.248776 0.90466 0.16687
890 1 0.251717 0.868648 0.17083
891 1 0.248796 0.666639 0.223519
892 1 0.245678 0.725838 0.204622
893 1 0.254686 0.912274 0.169155
894 1 0.257798 0.873908 0.177557
895 1 0.254747 0.667948 0.227146
896 1 0.251769 0.732695 0.209394
897 1 0.260743 0.924206 0.163554
898 1 0.263761 0.881415 0.172596
899 1 0.260768 0.675583 0.222098
900 1 0.257706 0.738547 0.215258
901 1 0.266747 0.921831 0.165392
902 1 0.269925 0.891655 0.176612
903 1 0.266807 0.682372 0.219177
904 1 0.263713 0.742341 0.200344
905 1 0.273 0.938438 0.179662
906 1 0.276085 0.90252 0.197332
907 1 0.272991 0.688314 0.231245
908 1 0.269777 0.747401 0.206328
909 1 0.279146 0.941291 0.193392
910 1 0.282035 0.899314 0.205477