ITEM: TIMESTEP
500000
ITEM: NUMBER OF ATOMS
1456
ITEM: BOX BOUNDS ss ss ss
-0.0399323 439.994
6.44074 17.5171
8.30838 19.6663
ITEM: ATOMS id type xs ys zs
1 1 0.00291474 0.535209 0.146372
2 1 0.00568066 0.469685 0.146369
3 1 0.00287871 0.279538 0.146361
4 1 0.0001 0.341444 0.146375
5 1 0.00290224 0.919121 0.146362
6 1 0.00568074 0.855484 0.146415
7 1 0.00286424 0.662886 0.14637
8 1 0.00010185 0.726783 0.14637
9 1 0.00881982 0.52733 0.146793
10 1 0.0118211 0.462632 0.146137
11 1 0.00884303 0.290208 0.143946
12 1 0.0058567 0.329036 0.145607
13 1 0.0150289 0.517635 0.156118
14 1 0.0179936 0.455079 0.152398
15 1 0.0148064 0.28416 0.146507
16 1 0.0118409 0.328739 0.143297
17 1 0.0209881 0.517461 0.149156
18 1 0.0238894 0.453288 0.152746
19 1 0.0207217 0.279417 0.156238
20 1 0.0178706 0.324721 0.152949
21 1 0.0269603 0.512231 0.15343
22 1 0.0298258 0.44966 0.159561
23 1 0.0267623 0.276008 0.155607
24 1 0.0238109 0.317562 0.152434
25 1 0.0329871 0.507751 0.16713
26 1 0.0360111 0.450312 0.16969
27 1 0.0329135 0.274301 0.159953
28 1 0.0299828 0.309683 0.156374
29 1 0.0390464 0.511511 0.174187
30 1 0.042026 0.449394 0.174978
31 1 0.0390662 0.273578 0.168555
32 1 0.0360219 0.313657 0.164313
33 1 0.0450366 0.513086 0.176965
34 1 0.0480411 0.452818 0.175435
35 1 0.0450164 0.279435 0.180437
36 1 0.0420475 0.318131 0.171467
37 1 0.050978 0.516669 0.183336
38 1 0.0540174 0.453042 0.19515
39 1 0.0512243 0.279033 0.1965
40 1 0.0480984 0.316217 0.188671
41 1 0.0570715 0.519031 0.188841
42 1 0.0601892 0.453259 0.188769
43 1 0.0571814 0.281538 0.211805
44 1 0.0541367 0.318207 0.200261
45 1 0.0630847 0.519246 0.182208
46 1 0.0661854 0.457516 0.185566
47 1 0.0632307 0.283232 0.206291
48 1 0.060244 0.323259 0.203156
49 1 0.06919 0.519204 0.18757
50 1 0.0722335 0.45956 0.18836
51 1 0.0692432 0.28489 0.204528
52 1 0.0662386 0.320498 0.194475
53 1 0.0753992 0.521775 0.183359
54 1 0.0783893 0.459924 0.178091
55 1 0.0752348 0.291209 0.198375
56 1 0.0722069 0.327162 0.200482
57 1 0.0814524 0.52044 0.181656
58 1 0.0843835 0.459114 0.183679
59 1 0.0813758 0.287229 0.179993
60 1 0.0782587 0.327415 0.18345
61 1 0.0874522 0.521182 0.18666
62 1 0.090439 0.45912 0.189729
63 1 0.0874178 0.281626 0.182137
64 1 0.0843384 0.3256 0.182503
65 1 0.0933739 0.517306 0.194747
66 1 0.0964566 0.452177 0.201714
67 1 0.0934174 0.279123 0.185046
68 1 0.0904101 0.322311 0.18674
69 1 0.0994689 0.511308 0.202058
70 1 0.102443 0.445398 0.201692
71 1 0.0994315 0.271573 0.188448
72 1 0.0964288 0.317619 0.187821
73 1 0.105495 0.506487 0.20481
74 1 0.108481 0.439442 0.197713
75 1 0.105359 0.266707 0.192833
76 1 0.10234 0.309718 0.194977
77 1 0.111604 0.496212 0.199659
78 1 0.114584 0.432088 0.201109
79 1 0.111458 0.258303 0.188994
80 1 0.108447 0.306135 0.189551
81 1 0.117569 0.491278 0.198242
82 1 0.120628 0.427367 0.203813
83 1 0.117509 0.252644 0.200734
84 1 0.114519 0.29693 0.194823
85 1 0.123673 0.488194 0.20637
86 1 0.126697 0.424569 0.207061
87 1 0.123538 0.252981 0.204749
88 1 0.12059 0.293089 0.204657
89 1 0.129671 0.481588 0.207511
90 1 0.132683 0.415178 0.217351
91 1 0.129546 0.246715 0.218033
92 1 0.126588 0.290874 0.206156
93 1 0.135682 0.472518 0.208263
94 1 0.138767 0.410571 0.214158
95 1 0.135727 0.235715 0.222049
96 1 0.13275 0.281611 0.22451
97 1 0.141708 0.477405 0.218652
98 1 0.144724 0.415253 0.230922
99 1 0.141722 0.235409 0.226322
100 1 0.138702 0.274092 0.223651
101 1 0.147629 0.478158 0.228179
102 1 0.150703 0.418361 0.238335
103 1 0.147645 0.242988 0.24798
104 1 0.144681 0.28231 0.230852
105 1 0.153857 0.482348 0.229019
106 1 0.156976 0.424912 0.241014
107 1 0.153871 0.253804 0.258905
108 1 0.150725 0.285626 0.252063
109 1 0.159929 0.485328 0.234643
110 1 0.163066 0.425621 0.249729
111 1 0.159888 0.248577 0.263387
112 1 0.15687 0.291304 0.257262
113 1 0.166086 0.483589 0.24102
114 1 0.168875 0.41426 0.250147
115 1 0.165907 0.248175 0.276646
116 1 0.16287 0.291173 0.270112
117 1 0.171991 0.476573 0.237879
118 1 0.175032 0.411488 0.25358
119 1 0.172053 0.245972 0.277007
120 1 0.168979 0.284345 0.266651
121 1 0.178101 0.470184 0.249814
122 1 0.181147 0.407123 0.252518
123 1 0.178124 0.242141 0.292537
124 1 0.175071 0.280464 0.274266
125 1 0.184212 0.466213 0.242119
126 1 0.18726 0.404971 0.255445
127 1 0.18407 0.236929 0.294715
128 1 0.181052 0.277532 0.284175
129 1 0.190137 0.464432 0.242606
130 1 0.19321 0.401 0.248377
131 1 0.190301 0.231549 0.282505
132 1 0.187173 0.271079 0.282823
133 1 0.196203 0.462949 0.236347
134 1 0.199092 0.401752 0.251638
135 1 0.196238 0.229964 0.274841
136 1 0.193266 0.269182 0.266418
137 1 0.202202 0.466779 0.236992
138 1 0.205276 0.40588 0.24522
139 1 0.202265 0.226868 0.281997
140 1 0.199295 0.26657 0.275827
141 1 0.208211 0.471686 0.23332
142 1 0.211244 0.405293 0.244989
143 1 0.208305 0.236746 0.282145
144 1 0.205273 0.271614 0.26537
145 1 0.214189 0.468347 0.234152
146 1 0.217317 0.40964 0.258423
147 1 0.214216 0.238903 0.291947
148 1 0.211181 0.276423 0.277515
149 1 0.220343 0.469327 0.240427
150 1 0.223214 0.407693 0.253761
151 1 0.22034 0.234861 0.290503
152 1 0.217363 0.274272 0.286112
153 1 0.226272 0.466645 0.23874
154 1 0.229266 0.402834 0.247992
155 1 0.226229 0.239722 0.292911
156 1 0.223201 0.278827 0.28515
157 1 0.232369 0.46624 0.239533
158 1 0.235432 0.402381 0.252266
159 1 0.232301 0.229518 0.294136
160 1 0.229224 0.27086 0.274796
161 1 0.238504 0.459818 0.233363
162 1 0.241397 0.398826 0.25179
163 1 0.238337 0.229503 0.305244
164 1 0.235329 0.27012 0.293022
165 1 0.244484 0.456229 0.241205
166 1 0.247384 0.400652 0.264694
167 1 0.244322 0.237263 0.314919
168 1 0.241291 0.273789 0.294239
169 1 0.250518 0.453068 0.243974
170 1 0.253408 0.395535 0.26679
171 1 0.250285 0.231496 0.316081
172 1 0.247346 0.273321 0.307024
173 1 0.256442 0.451801 0.244333
174 1 0.259554 0.389778 0.263924
175 1 0.256501 0.228789 0.323836
176 1 0.253443 0.265379 0.311154
177 1 0.262626 0.447647 0.241654
178 1 0.26569 0.387911 0.264244
179 1 0.262582 0.227118 0.321018
180 1 0.259517 0.264875 0.306113
181 1 0.268709 0.445357 0.238222
182 1 0.271736 0.38827 0.272462
183 1 0.268649 0.226824 0.334514
184 1 0.265713 0.262725 0.315937
185 1 0.274771 0.44889 0.248398
186 1 0.277803 0.394646 0.273026
187 1 0.274777 0.231706 0.344485
188 1 0.271645 0.263403 0.323191
189 1 0.280798 0.45088 0.242567
190 1 0.283776 0.392472 0.266884
191 1 0.280851 0.233662 0.345363
192 1 0.277785 0.269542 0.331561
193 1 0.286733 0.453275 0.240063
194 1 0.289829 0.397938 0.275065
195 1 0.286871 0.23054 0.334682
196 1 0.283845 0.268447 0.325285
197 1 0.292748 0.461891 0.256231
198 1 0.295796 0.403616 0.276419
199 1 0.292858 0.232182 0.324722
200 1 0.28987 0.269467 0.316192
201 1 0.29886 0.462283 0.248229
202 1 0.301839 0.404975 0.265729
203 1 0.298852 0.238786 0.323499
204 1 0.295789 0.272982 0.318155
205 1 0.304882 0.465309 0.240617
206 1 0.307867 0.412249 0.269161
207 1 0.304973 0.250065 0.332375
208 1 0.301898 0.27917 0.314394
209 1 0.310897 0.468578 0.241374
210 1 0.313988 0.416736 0.273575
211 1 0.310999 0.252828 0.335898
212 1 0.307853 0.288143 0.315921
213 1 0.316884 0.477287 0.253931
214 1 0.320051 0.420336 0.275431
215 1 0.31714 0.259895 0.337421
216 1 0.314011 0.292028 0.321767
217 1 0.323144 0.482798 0.253674
218 1 0.326255 0.424981 0.275718
219 1 0.323221 0.268975 0.338585
220 1 0.320154 0.298591 0.327585
221 1 0.329186 0.491913 0.253007
222 1 0.332155 0.434 0.274864
223 1 0.329194 0.270706 0.355202
224 1 0.326206 0.303628 0.328237
225 1 0.335182 0.490779 0.249119
226 1 0.338183 0.42902 0.270781
227 1 0.335215 0.278517 0.355513
228 1 0.332224 0.312254 0.33485
229 1 0.341162 0.487941 0.240901
230 1 0.344224 0.43687 0.272214
231 1 0.341243 0.283369 0.357182
232 1 0.33821 0.313859 0.336487
233 1 0.347143 0.492757 0.23683
234 1 0.350252 0.443487 0.273218
235 1 0.347361 0.291237 0.361473
236 1 0.344212 0.317697 0.336259
237 1 0.353342 0.50444 0.251823
238 1 0.356395 0.449306 0.282033
239 1 0.353304 0.299749 0.366659
240 1 0.350293 0.330711 0.347109
241 1 0.359449 0.502059 0.247059
242 1 0.362369 0.445171 0.263427
243 1 0.359308 0.297462 0.354268
244 1 0.356374 0.332574 0.345383
245 1 0.365218 0.498322 0.232258
246 1 0.36829 0.448437 0.268141
247 1 0.365233 0.29846 0.359579
248 1 0.362218 0.326432 0.325819
249 1 0.371348 0.502372 0.24041
250 1 0.37442 0.447958 0.271054
251 1 0.37135 0.309506 0.364222
252 1 0.368197 0.340745 0.348929
253 1 0.377599 0.493304 0.238087
254 1 0.380588 0.439273 0.276716
255 1 0.377404 0.308928 0.378263
256 1 0.374363 0.337355 0.34612
257 1 0.383543 0.497093 0.240173
258 1 0.386655 0.450858 0.274881
259 1 0.38355 0.304563 0.382438
260 1 0.380443 0.33242 0.35881
261 1 0.389725 0.5025 0.24659
262 1 0.392609 0.448094 0.278115
263 1 0.389648 0.312035 0.389475
264 1 0.386564 0.342804 0.357369
265 1 0.395689 0.498523 0.243717
266 1 0.398673 0.442649 0.275265
267 1 0.39567 0.309483 0.385954
268 1 0.392593 0.34253 0.363475
269 1 0.401671 0.49732 0.246049
270 1 0.404638 0.44369 0.275082
271 1 0.401651 0.304799 0.377763
272 1 0.398653 0.335901 0.3581
273 1 0.407733 0.495151 0.246204
274 1 0.410738 0.442948 0.281659
275 1 0.407723 0.301009 0.376058
276 1 0.40462 0.331488 0.35056
277 1 0.413748 0.490489 0.251533
278 1 0.416743 0.442443 0.290893
279 1 0.413707 0.300619 0.380849
280 1 0.410741 0.330755 0.357435
281 1 0.419886 0.498434 0.264775
282 1 0.422736 0.450633 0.306335
283 1 0.419597 0.303649 0.391033
284 1 0.416677 0.333707 0.365215
285 1 0.425851 0.492336 0.267656
286 1 0.428837 0.438128 0.306297
287 1 0.425535 0.304701 0.410474
288 1 0.422562 0.340611 0.385251
289 1 0.431931 0.481897 0.267155
290 1 0.434769 0.431263 0.30957
291 1 0.431614 0.301323 0.410528
292 1 0.428526 0.334522 0.388748
293 1 0.437863 0.473633 0.267806
294 1 0.440911 0.420102 0.309646
295 1 0.437618 0.294398 0.412237
296 1 0.434573 0.334285 0.389596
297 1 0.444011 0.464299 0.267605
298 1 0.446907 0.403727 0.299486
299 1 0.443569 0.269718 0.405378
300 1 0.440659 0.316665 0.385925
301 1 0.449963 0.447391 0.264197
302 1 0.452781 0.398191 0.313612
303 1 0.449535 0.265857 0.414223
304 1 0.446568 0.297646 0.386905
305 1 0.455966 0.441305 0.281077
306 1 0.458842 0.38504 0.32447
307 1 0.455393 0.265078 0.438158
308 1 0.4525 0.299053 0.399505
309 1 0.461888 0.422326 0.285178
310 1 0.464702 0.36754 0.32961
311 1 0.461306 0.251694 0.443155
312 1 0.458443 0.290562 0.412076
313 1 0.467856 0.405281 0.303565
314 1 0.470712 0.352377 0.358641
315 1 0.46708 0.231711 0.461891
316 1 0.464375 0.269688 0.417826
317 1 0.47385 0.389258 0.321238
318 1 0.476611 0.326476 0.364704
319 1 0.473052 0.223348 0.484372
320 1 0.470184 0.259472 0.444265
321 1 0.479705 0.356129 0.334846
322 1 0.482455 0.310754 0.394146
323 1 0.478746 0.198244 0.498045
324 1 0.475961 0.232956 0.456786
325 1 0.485686 0.345271 0.393844
326 1 0.487989 0.319679 0.47899
327 1 0.484436 0.20871 0.552092
328 1 0.481763 0.222236 0.487596
329 1 0.491045 0.359462 0.484494
330 1 0.493075 0.349931 0.584869
331 1 0.489255 0.251537 0.661174
332 1 0.487166 0.250954 0.575521
333 1 0.496042 0.402909 0.591473
334 1 0.497628 0.419966 0.699409
335 1 0.493819 0.31917 0.788001
336 1 0.492064 0.297675 0.693693
337 1 0.500359 0.488997 0.70968
338 1 0.501552 0.536589 0.821838
339 1 0.498016 0.430591 0.906686
340 1 0.496476 0.375243 0.816308
341 1 0.503783 0.629472 0.814791
342 1 0.503681 0.74307 0.886272
343 1 0.500206 0.636287 0.98813
344 1 0.500007 0.524102 0.933402
345 1 0.504926 0.851744 0.838302
346 1 0.502599 0.9467 0.797684
347 1 0.499652 0.860316 0.940896
348 1 0.501074 0.750639 0.968302
349 1 0.503002 1.007 0.678548
350 1 0.500199 0.996872 0.589544
351 1 0.497528 0.98 0.762773
352 1 0.499588 0.942868 0.849432
353 1 0.500618 0.97145 0.463325
354 1 0.498108 0.934906 0.388623
355 1 0.495058 0.966991 0.553669
356 1 0.497066 0.992272 0.639734
357 1 0.498743 0.887209 0.268411
358 1 0.496324 0.834311 0.195163
359 1 0.493047 0.908409 0.338007
360 1 0.494826 0.941331 0.433053
361 1 0.496852 0.756744 0.0938426
362 1 0.494473 0.682388 0.0421983
363 1 0.491201 0.807131 0.138907
364 1 0.493034 0.860254 0.224163
365 1 0.494842 0.554906 0.00859664
366 1 0.492314 0.461387 0.00559571
367 1 0.489323 0.631819 0.0024207
368 1 0.491316 0.716125 0.0521113
369 1 0.492815 0.345153 0.0638792
370 1 0.490422 0.283195 0.132783
371 1 0.487121 0.423089 0.0495924
372 1 0.489129 0.504614 -0.000666903
373 1 0.491069 0.205672 0.234791
374 1 0.488665 0.149693 0.315018
375 1 0.485404 0.242768 0.184151
376 1 0.48719 0.314934 0.113752
377 1 0.489244 0.0925267 0.428582
378 1 0.486859 0.050296 0.506313
379 1 0.483606 0.0979294 0.35495
380 1 0.48549 0.159548 0.272123
381 1 0.487233 0.0598502 0.635544
382 1 0.484697 0.113485 0.712849
383 1 0.481767 0.0471139 0.560388
384 1 0.483731 0.0405641 0.464523
385 1 0.48591 0.21418 0.78757
386 1 0.485303 0.336451 0.733021
387 1 0.480824 0.248663 0.666724
388 1 0.48149 0.113341 0.664124
389 1 0.487762 0.421009 0.730735
390 1 0.488677 0.492006 0.626874
391 1 0.484038 0.430504 0.565965
392 1 0.482684 0.353322 0.653361
393 1 0.4917 0.548352 0.615068
394 1 0.493089 0.586808 0.502105
395 1 0.488459 0.55344 0.427188
396 1 0.486609 0.499596 0.524116
397 1 0.496473 0.617143 0.488737
398 1 0.498322 0.618079 0.382302
399 1 0.493458 0.619897 0.301708
400 1 0.491362 0.593422 0.394779
401 1 0.501672 0.634476 0.380416
402 1 0.504088 0.608801 0.28847
403 1 0.49947 0.589638 0.187813
404 1 0.496722 0.622021 0.263277
405 1 0.507369 0.616431 0.305115
406 1 0.510113 0.567785 0.243742
407 1 0.50598 0.497417 0.151453
408 1 0.502767 0.560152 0.178706
409 1 0.513387 0.598513 0.265826
410 1 0.516299 0.547735 0.208086
411 1 0.512302 0.437204 0.101815
412 1 0.509304 0.485056 0.1488
413 1 0.519432 0.589059 0.232145
414 1 0.522306 0.537298 0.177379
415 1 0.518587 0.415885 0.0796333
416 1 0.515567 0.447558 0.116531
417 1 0.525442 0.5722 0.213603
418 1 0.528239 0.519784 0.165918
419 1 0.524838 0.395097 0.0605227
420 1 0.521867 0.435595 0.0893211
421 1 0.531496 0.562846 0.20158
422 1 0.534438 0.510874 0.156473
423 1 0.53114 0.382129 0.055614
424 1 0.528182 0.412053 0.0840082
425 1 0.537582 0.552424 0.196893
426 1 0.540489 0.492143 0.155481
427 1 0.53726 0.372702 0.040464
428 1 0.534246 0.406121 0.071789
429 1 0.543464 0.537014 0.193024
430 1 0.546457 0.490817 0.150772
431 1 0.543421 0.36268 0.0343063
432 1 0.540295 0.39334 0.063784
433 1 0.549529 0.534084 0.191263
434 1 0.552469 0.484246 0.154976
435 1 0.549467 0.354376 0.0377871
436 1 0.546405 0.38798 0.0626248
437 1 0.555619 0.52808 0.191335
438 1 0.558605 0.482121 0.148296
439 1 0.5555 0.350659 0.0328603
440 1 0.552512 0.383255 0.065117
441 1 0.561716 0.525648 0.187455
442 1 0.564805 0.473451 0.146852
443 1 0.561549 0.339256 0.042989
444 1 0.55852 0.374235 0.0636377
445 1 0.56788 0.521906 0.186747
446 1 0.570767 0.469477 0.147571
447 1 0.567762 0.329471 0.0481954
448 1 0.564752 0.367572 0.0620251
449 1 0.573819 0.516751 0.18279
450 1 0.576869 0.4652 0.147377
451 1 0.573982 0.331352 0.0443499
452 1 0.570874 0.362948 0.0676873
453 1 0.579965 0.517345 0.178103
454 1 0.582964 0.465535 0.136931
455 1 0.579997 0.326402 0.038217
456 1 0.577055 0.36083 0.0686295
457 1 0.586038 0.519018 0.167076
458 1 0.589212 0.465113 0.133529
459 1 0.585997 0.3349 0.0304195
460 1 0.582963 0.361967 0.0553609
461 1 0.59223 0.515599 0.171244
462 1 0.595264 0.465008 0.140468
463 1 0.592096 0.333662 0.0266988
464 1 0.589046 0.356536 0.0580307
465 1 0.598258 0.510515 0.189689
466 1 0.601304 0.461239 0.14946
467 1 0.598194 0.323511 0.0506962
468 1 0.595183 0.357741 0.0611521
469 1 0.604281 0.517976 0.185036
470 1 0.607352 0.461914 0.146026
471 1 0.604253 0.31219 0.0586945
472 1 0.601204 0.348789 0.075626
473 1 0.610314 0.52047 0.180114
474 1 0.613316 0.465906 0.153751
475 1 0.610254 0.315668 0.0640311
476 1 0.607281 0.350384 0.079982
477 1 0.616342 0.509119 0.191157
478 1 0.619321 0.452936 0.161996
479 1 0.616261 0.31286 0.0612015
480 1 0.613388 0.350267 0.083268
481 1 0.622483 0.500621 0.200457
482 1 0.625354 0.44166 0.172042
483 1 0.622234 0.300412 0.0756731
484 1 0.619324 0.33842 0.0933793
485 1 0.628411 0.499038 0.201702
486 1 0.631475 0.448786 0.164422
487 1 0.628469 0.290335 0.0798491
488 1 0.625362 0.321876 0.104629
489 1 0.634436 0.504043 0.19649
490 1 0.637514 0.455193 0.154455
491 1 0.634557 0.303052 0.0708594
492 1 0.631489 0.329691 0.0973061
493 1 0.64057 0.507836 0.187162
494 1 0.643493 0.455381 0.14966
495 1 0.640539 0.312029 0.0570872
496 1 0.637555 0.34402 0.0891813
497 1 0.646495 0.505873 0.186275
498 1 0.649532 0.454562 0.155275
499 1 0.646582 0.307665 0.0566795
500 1 0.643573 0.34493 0.0737994
501 1 0.65254 0.503306 0.190221
502 1 0.655647 0.455619 0.152251
503 1 0.652611 0.317735 0.0580953
504 1 0.649543 0.345452 0.0806651
505 1 0.658534 0.501867 0.190634
506 1 0.661716 0.449685 0.160089
507 1 0.65872 0.318922 0.0448127
508 1 0.655715 0.349626 0.0728442
509 1 0.664616 0.499501 0.203922
510 1 0.667678 0.443809 0.170264
511 1 0.664876 0.315033 0.0521683
512 1 0.661851 0.345337 0.0761345
513 1 0.670774 0.499703 0.202439
514 1 0.673791 0.452756 0.165276
515 1 0.670847 0.314582 0.0602298
516 1 0.667842 0.341235 0.0843121
517 1 0.676813 0.498323 0.204669
518 1 0.679881 0.449557 0.160103
519 1 0.676846 0.321779 0.0510859
520 1 0.673875 0.344706 0.079858
521 1 0.682953 0.497279 0.207526
522 1 0.685981 0.444976 0.172866
523 1 0.683003 0.314194 0.0560974
524 1 0.679944 0.347513 0.0770179
525 1 0.68906 0.495651 0.217429
526 1 0.691955 0.440548 0.17502
527 1 0.689004 0.305529 0.0672894
528 1 0.685921 0.343974 0.085858
529 1 0.694935 0.491401 0.203371
530 1 0.697993 0.439063 0.168056
531 1 0.695008 0.30456 0.0723793
532 1 0.691927 0.337927 0.0893277
533 1 0.701045 0.4875 0.202803
534 1 0.704094 0.437846 0.15726
535 1 0.701023 0.289803 0.0729032
536 1 0.698064 0.329431 0.0978406
537 1 0.707315 0.487958 0.193388
538 1 0.710303 0.431659 0.169284
539 1 0.707132 0.29066 0.0763635
540 1 0.70403 0.324161 0.0903792
541 1 0.713286 0.484042 0.205818
542 1 0.716325 0.432192 0.174262
543 1 0.713257 0.281929 0.0788284
544 1 0.710227 0.32107 0.09255
545 1 0.719411 0.48493 0.211496
546 1 0.722442 0.429336 0.187471
547 1 0.719328 0.283702 0.0919186
548 1 0.716278 0.316789 0.103525
549 1 0.725384 0.477471 0.219282
550 1 0.728416 0.427658 0.182912
551 1 0.725359 0.279562 0.0973722
552 1 0.72238 0.316501 0.115805
553 1 0.731333 0.488344 0.207985
554 1 0.734384 0.435975 0.166212
555 1 0.731392 0.282155 0.0930516
556 1 0.728429 0.311919 0.116757
557 1 0.737438 0.486319 0.199061
558 1 0.74046 0.433689 0.17022
559 1 0.737294 0.285061 0.0875957
560 1 0.734258 0.321542 0.102104
561 1 0.743507 0.488516 0.204415
562 1 0.746498 0.436925 0.169052
563 1 0.743507 0.286326 0.0861158
564 1 0.74045 0.315246 0.105564
565 1 0.749444 0.488707 0.203996
566 1 0.75259 0.439731 0.174778
567 1 0.749758 0.285589 0.0849938
568 1 0.74659 0.320507 0.107031
569 1 0.755542 0.491346 0.211067
570 1 0.758503 0.44398 0.180019
571 1 0.755744 0.294758 0.0887677
572 1 0.752672 0.325351 0.104861
573 1 0.761541 0.498418 0.214691
574 1 0.764535 0.439745 0.19285
575 1 0.761726 0.285462 0.106272
576 1 0.758733 0.325554 0.118688
577 1 0.767632 0.490555 0.230205
578 1 0.770567 0.432075 0.209109
579 1 0.7677 0.282949 0.127937
580 1 0.764637 0.320816 0.131665
581 1 0.773629 0.493181 0.235373
582 1 0.776563 0.429464 0.21239
583 1 0.773593 0.277942 0.139698
584 1 0.770641 0.31413 0.15108
585 1 0.779566 0.484802 0.238816
586 1 0.782658 0.427654 0.213642
587 1 0.779651 0.264074 0.144831
588 1 0.776616 0.310172 0.15408
589 1 0.785824 0.48489 0.236037
590 1 0.788785 0.425935 0.207953
591 1 0.785629 0.26719 0.134909
592 1 0.782651 0.303579 0.158742
593 1 0.79171 0.477826 0.23924
594 1 0.794733 0.41836 0.207452
595 1 0.791608 0.271098 0.120345
596 1 0.788698 0.306187 0.144878
597 1 0.797664 0.479078 0.238994
598 1 0.800697 0.420741 0.205993
599 1 0.797746 0.266874 0.127174
600 1 0.794665 0.299158 0.143055
601 1 0.803654 0.485721 0.224804
602 1 0.806592 0.4294 0.194686
603 1 0.80373 0.269871 0.131138
604 1 0.800751 0.307397 0.142735
605 1 0.80972 0.493959 0.213506
606 1 0.812761 0.43313 0.194308
607 1 0.809763 0.264816 0.143855
608 1 0.80675 0.306397 0.149868
609 1 0.815726 0.490641 0.221683
610 1 0.818796 0.429085 0.203505
611 1 0.815743 0.258718 0.148618
612 1 0.8128 0.306585 0.158878
613 1 0.821856 0.489878 0.233533
614 1 0.824963 0.432937 0.208313
615 1 0.821882 0.267922 0.142547
616 1 0.818807 0.303735 0.15884
617 1 0.828002 0.495583 0.222158
618 1 0.830951 0.4392 0.194505
619 1 0.827799 0.276886 0.133944
620 1 0.824767 0.314013 0.15056
621 1 0.833808 0.493251 0.221596
622 1 0.836942 0.438984 0.202252
623 1 0.833846 0.276152 0.133087
624 1 0.83078 0.317092 0.145721
625 1 0.839992 0.491816 0.218772
626 1 0.842931 0.431065 0.197503
627 1 0.839799 0.272958 0.146746
628 1 0.836839 0.310457 0.155778
629 1 0.845994 0.489288 0.215654
630 1 0.848949 0.428013 0.198075
631 1 0.84588 0.263254 0.136412
632 1 0.842839 0.305793 0.15757
633 1 0.852015 0.488536 0.210799
634 1 0.855033 0.427686 0.195759
635 1 0.851926 0.260867 0.140194
636 1 0.848852 0.303526 0.149572
637 1 0.858064 0.487978 0.201984
638 1 0.861072 0.430359 0.177211
639 1 0.858099 0.259303 0.142232
640 1 0.854988 0.296587 0.160572
641 1 0.864201 0.491264 0.190971
642 1 0.867264 0.432293 0.175066
643 1 0.864175 0.255683 0.144881
644 1 0.861217 0.29622 0.155052
645 1 0.870261 0.487231 0.196529
646 1 0.873241 0.418955 0.178005
647 1 0.870207 0.254884 0.147612
648 1 0.867185 0.301753 0.154516
649 1 0.876272 0.481709 0.194574
650 1 0.879347 0.420236 0.182514
651 1 0.876341 0.245962 0.142433
652 1 0.873298 0.287033 0.150604
653 1 0.882377 0.482411 0.192198
654 1 0.885451 0.416187 0.170277
655 1 0.882307 0.249754 0.135477
656 1 0.879327 0.286285 0.149424
657 1 0.888402 0.482903 0.1791
658 1 0.891377 0.425328 0.159703
659 1 0.888469 0.245196 0.131296
660 1 0.885413 0.282 0.140787
661 1 0.894337 0.488819 0.169904
662 1 0.897363 0.431477 0.150986
663 1 0.894415 0.254847 0.111184
664 1 0.891463 0.289273 0.129528
665 1 0.900348 0.49376 0.169972
666 1 0.903341 0.432209 0.148539
667 1 0.900506 0.262576 0.105817
668 1 0.897383 0.300617 0.117947
669 1 0.906303 0.49607 0.163451
670 1 0.909589 0.441474 0.14304
671 1 0.906528 0.274841 0.0941381
672 1 0.90355 0.308833 0.108643
673 1 0.912592 0.501456 0.160641
674 1 0.915657 0.438989 0.142986
675 1 0.912471 0.277461 0.099525
676 1 0.909462 0.312653 0.108581
677 1 0.918641 0.500997 0.160891
678 1 0.921575 0.4385 0.136559
679 1 0.91857 0.269598 0.0912462
680 1 0.915555 0.309748 0.107217
681 1 0.924647 0.50523 0.151608
682 1 0.927763 0.450709 0.126397
683 1 0.924563 0.270521 0.0894729
684 1 0.921605 0.310474 0.106602
685 1 0.930735 0.515264 0.140551
686 1 0.933808 0.450956 0.117135
687 1 0.93088 0.284945 0.0776295
688 1 0.927698 0.318337 0.0920955
689 1 0.936871 0.518473 0.129167
690 1 0.939808 0.45944 0.106471
691 1 0.936916 0.281916 0.0786079
692 1 0.933917 0.321815 0.0854581
693 1 0.942851 0.516759 0.121875
694 1 0.945807 0.456272 0.126133
695 1 0.942951 0.282295 0.0938182
696 1 0.939966 0.327894 0.0880672
697 1 0.948724 0.51605 0.140808
698 1 0.951874 0.455301 0.132398
699 1 0.948963 0.281759 0.108367
700 1 0.945978 0.323474 0.108618
701 1 0.954942 0.525174 0.13871
702 1 0.957963 0.462375 0.139835
703 1 0.955132 0.281361 0.124136
704 1 0.952015 0.317705 0.121805
705 1 0.960928 0.522879 0.142088
706 1 0.96394 0.462284 0.139356
707 1 0.961168 0.289351 0.132706
708 1 0.958129 0.325548 0.128661
709 1 0.966916 0.52579 0.146374
710 1 0.970121 0.466327 0.141899
711 1 0.967237 0.289798 0.139628
712 1 0.964235 0.323938 0.136134
713 1 0.973132 0.530857 0.134839
714 1 0.976173 0.466503 0.143174
715 1 0.973116 0.291149 0.13181
716 1 0.970179 0.32998 0.134594
717 1 0.979056 0.529881 0.141962
718 1 0.982106 0.464838 0.142597
719 1 0.979161 0.290647 0.1383
720 1 0.976161 0.329737 0.140968
721 1 0.985146 0.532286 0.144205
722 1 0.988181 0.472295 0.143559
723 1 0.985255 0.296745 0.133743
724 1 0.98215 0.332024 0.135155
725 1 0.991184 0.535434 0.146017
726 1 0.994197 0.473431 0.146655
727 1 0.991275 0.302835 0.142463
728 1 0.988243 0.338827 0.139354
729 1 0.00883119 0.890798 0.150129
730 1 0.0118972 0.852209 0.153614
731 1 0.00885118 0.658998 0.147994
732 1 0.00584 0.723057 0.146518
733 1 0.0150154 0.889639 0.155731
734 1 0.017995 0.846689 0.159377
735 1 0.0150068 0.652104 0.155805
736 1 0.0119124 0.718315 0.151068
737 1 0.0210517 0.883539 0.155541
738 1 0.0240224 0.841273 0.148805
739 1 0.0209181 0.645225 0.143069
740 1 0.0179642 0.713385 0.150636
741 1 0.0270016 0.878744 0.158055
742 1 0.0299152 0.839011 0.159698
743 1 0.026989 0.643176 0.153676
744 1 0.023958 0.710803 0.143692
745 1 0.0329145 0.875185 0.165091
746 1 0.0359082 0.839842 0.167487
747 1 0.0328682 0.641518 0.160376
748 1 0.0299499 0.706789 0.159698
749 1 0.0389649 0.879595 0.17056
750 1 0.0419483 0.841838 0.177987
751 1 0.038891 0.642733 0.170491
752 1 0.0360284 0.70403 0.168829
753 1 0.0449328 0.882363 0.180511
754 1 0.0478988 0.840529 0.180995
755 1 0.0449837 0.642098 0.172736
756 1 0.0419491 0.705525 0.17242
757 1 0.0509761 0.884026 0.177564
758 1 0.0539876 0.841795 0.169725
759 1 0.0510332 0.646345 0.181722
760 1 0.0480104 0.707218 0.180538
761 1 0.0570964 0.878024 0.160277
762 1 0.0601258 0.840834 0.168513
763 1 0.0571199 0.647137 0.176294
764 1 0.0541508 0.70882 0.17433
765 1 0.0631482 0.884891 0.163973
766 1 0.0661782 0.848206 0.160083
767 1 0.0631832 0.64894 0.173808
768 1 0.0601854 0.709137 0.172294
769 1 0.0693713 0.88432 0.153341
770 1 0.072397 0.849151 0.159507
771 1 0.069255 0.650243 0.170707
772 1 0.0662922 0.714136 0.167563
773 1 0.0753932 0.890111 0.165119
774 1 0.0784597 0.850604 0.176165
775 1 0.0752787 0.654571 0.173655
776 1 0.0722629 0.715845 0.165265
777 1 0.0814629 0.890198 0.186723
778 1 0.0845364 0.851753 0.193821
779 1 0.081396 0.651869 0.188312
780 1 0.0784074 0.712493 0.182056
781 1 0.0876126 0.888544 0.198366
782 1 0.0905869 0.846361 0.195249
783 1 0.0874906 0.652962 0.190506
784 1 0.0844364 0.71523 0.190287
785 1 0.0937054 0.882492 0.194138
786 1 0.096629 0.839401 0.192275
787 1 0.0935406 0.643757 0.19396
788 1 0.0905901 0.712867 0.194939
789 1 0.0997011 0.876486 0.191499
790 1 0.102752 0.83651 0.193779
791 1 0.0995975 0.641005 0.194633
792 1 0.0966025 0.705448 0.192369
793 1 0.105775 0.872892 0.181541
794 1 0.108924 0.826608 0.182916
795 1 0.105688 0.634286 0.199121
796 1 0.102692 0.70411 0.195848
797 1 0.111929 0.868012 0.171309
798 1 0.114898 0.825185 0.17208
799 1 0.111705 0.626456 0.199936
800 1 0.108715 0.693357 0.194202
801 1 0.117835 0.862063 0.16138
802 1 0.120738 0.817146 0.164692
803 1 0.117707 0.624396 0.193785
804 1 0.114661 0.689463 0.190226
805 1 0.123721 0.852143 0.170557
806 1 0.126817 0.807617 0.176969
807 1 0.123787 0.618271 0.189687
808 1 0.120763 0.680072 0.178423
809 1 0.129728 0.849129 0.172129
810 1 0.132711 0.804345 0.171591
811 1 0.129738 0.610824 0.197654
812 1 0.126778 0.676131 0.191228
813 1 0.135742 0.842964 0.16329
814 1 0.138752 0.80239 0.177807
815 1 0.135811 0.607659 0.189943
816 1 0.132709 0.670624 0.191228
817 1 0.141725 0.844884 0.165438
818 1 0.144739 0.804668 0.173477
819 1 0.141753 0.607975 0.201827
820 1 0.13883 0.670043 0.188438
821 1 0.147745 0.840569 0.161283
822 1 0.150935 0.806492 0.168375
823 1 0.147685 0.608963 0.200929
824 1 0.144669 0.670021 0.195049
825 1 0.153889 0.845922 0.176168
826 1 0.157009 0.809472 0.185871
827 1 0.153796 0.613357 0.20689
828 1 0.150703 0.670237 0.1874
829 1 0.159993 0.842378 0.180247
830 1 0.162973 0.80535 0.179523
831 1 0.159914 0.61737 0.215306
832 1 0.156849 0.676046 0.205072
833 1 0.165954 0.849157 0.179024
834 1 0.169017 0.808141 0.184699
835 1 0.166074 0.611838 0.218288
836 1 0.162913 0.67355 0.199791
837 1 0.172088 0.841791 0.181121
838 1 0.175045 0.799203 0.190643
839 1 0.172015 0.609934 0.22024
840 1 0.16903 0.672947 0.207668
841 1 0.178114 0.832981 0.191361
842 1 0.181198 0.794706 0.19895
843 1 0.178069 0.603214 0.227967
844 1 0.175046 0.668242 0.217406
845 1 0.184192 0.829311 0.176733
846 1 0.187238 0.787236 0.177643
847 1 0.184219 0.592625 0.224742
848 1 0.181238 0.658435 0.227302
849 1 0.190285 0.821576 0.15686
850 1 0.193336 0.788277 0.162986
851 1 0.190168 0.593866 0.220167
852 1 0.187152 0.654254 0.21177
853 1 0.196188 0.833771 0.154684
854 1 0.199263 0.79558 0.167664
855 1 0.196168 0.589965 0.201088
856 1 0.193146 0.655219 0.1944
857 1 0.202289 0.834223 0.159374
858 1 0.2052 0.791211 0.173707
859 1 0.202165 0.59442 0.209833
860 1 0.199149 0.659024 0.194333
861 1 0.208085 0.830371 0.161017
862 1 0.2111 0.797046 0.170326
863 1 0.208265 0.59988 0.21731
864 1 0.205165 0.660818 0.203875
865 1 0.214147 0.834132 0.158894
866 1 0.217121 0.788334 0.161252
867 1 0.214285 0.595931 0.205656
868 1 0.211256 0.662207 0.20366
869 1 0.220242 0.817689 0.149013
870 1 0.223227 0.782528 0.151019
871 1 0.220288 0.593996 0.204172
872 1 0.217222 0.653679 0.185325
873 1 0.226232 0.815975 0.139112
874 1 0.229332 0.780512 0.143313
875 1 0.22619 0.59599 0.204798
876 1 0.223219 0.655806 0.191512
877 1 0.232286 0.815101 0.127385
878 1 0.235294 0.767141 0.131747
879 1 0.232427 0.587047 0.202338
880 1 0.229305 0.650267 0.188193
881 1 0.238404 0.802855 0.115559
882 1 0.241462 0.758937 0.125721
883 1 0.238331 0.580441 0.193351
884 1 0.235367 0.644337 0.176715
885 1 0.244489 0.799515 0.116891
886 1 0.247445 0.761496 0.129729
887 1 0.244339 0.578776 0.200103
888 1 0.241399 0.635967 0.172944
889 1 0.250421 0.79159 0.104202
890 1 0.253452 0.752691 0.116336
891 1 0.250391 0.575875 0.199125
892 1 0.247303 0.640981 0.183237
893 1 0.256496 0.78972 0.105977
894 1 0.259469 0.759889 0.124191
895 1 0.25636 0.575278 0.19796
896 1 0.25339 0.633925 0.174642
897 1 0.262561 0.790615 0.107402
898 1 0.265553 0.750235 0.128035
899 1 0.262657 0.569205 0.192709
900 1 0.259673 0.631212 0.168236
901 1 0.268639 0.78392 0.120434
902 1 0.271701 0.7519 0.13038
903 1 0.268809 0.562245 0.191369
904 1 0.265776 0.624137 0.168159
905 1 0.274655 0.79295 0.106261
906 1 0.27777 0.758504 0.118222
907 1 0.274782 0.569171 0.196238
908 1 0.271714 0.625974 0.173343
909 1 0.280739 0.791128 0.101432