ITEM: TIMESTEP
122000
ITEM: NUMBER OF ATOMS
1456
ITEM: BOX BOUNDS ss ss ss
-0.0399323 445.359
5.20353 16.6229
7.04136 19.2214
ITEM: ATOMS id type xs ys zs
1 1 0.00287964 0.627475 0.240517
2 1 0.00561224 0.563919 0.240514
3 1 0.00284404 0.379484 0.240506
4 1 9.87955e-05 0.43953 0.24052
5 1 0.00286728 0.999854 0.240507
6 1 0.00561232 0.938129 0.240557
7 1 0.00282975 0.751317 0.240515
8 1 0.000100623 0.813294 0.240515
9 1 0.00871359 0.619833 0.240909
10 1 0.0116787 0.557078 0.240298
11 1 0.00873652 0.389834 0.238254
12 1 0.00578616 0.427495 0.239803
13 1 0.014783 0.618116 0.239398
14 1 0.0178363 0.556973 0.234748
15 1 0.0147282 0.3925 0.231689
16 1 0.0116983 0.427207 0.237649
17 1 0.0207197 0.618636 0.226976
18 1 0.0237785 0.556233 0.217351
19 1 0.0207099 0.385292 0.225481
20 1 0.0177862 0.428961 0.229911
21 1 0.0267118 0.61637 0.223973
22 1 0.0297367 0.554481 0.222707
23 1 0.0266132 0.380576 0.217544
24 1 0.0236589 0.423741 0.222852
25 1 0.032695 0.61313 0.231111
26 1 0.0357645 0.551929 0.230512
27 1 0.0326611 0.38521 0.223844
28 1 0.0296332 0.420041 0.220636
29 1 0.0386818 0.611642 0.239025
30 1 0.0417264 0.553621 0.232351
31 1 0.0387212 0.383828 0.230773
32 1 0.0356625 0.423494 0.22792
33 1 0.0447832 0.613752 0.236955
34 1 0.0477917 0.553655 0.238096
35 1 0.0446784 0.381196 0.23401
36 1 0.0417519 0.422571 0.234834
37 1 0.0508791 0.618598 0.236473
38 1 0.0538728 0.555844 0.239898
39 1 0.0507662 0.388203 0.231181
40 1 0.0477533 0.422359 0.234947
41 1 0.0568895 0.614721 0.239008
42 1 0.0598902 0.554634 0.23661
43 1 0.0567867 0.382357 0.235421
44 1 0.053824 0.422677 0.241521
45 1 0.0628868 0.612997 0.22913
46 1 0.0659204 0.550573 0.233316
47 1 0.0628194 0.384336 0.233914
48 1 0.0596991 0.418977 0.238173
49 1 0.0689067 0.611668 0.231669
50 1 0.07205 0.553727 0.226751
51 1 0.0688489 0.382235 0.242743
52 1 0.0658356 0.417845 0.23496
53 1 0.0749367 0.61339 0.230558
54 1 0.0779537 0.555873 0.240001
55 1 0.0748912 0.384747 0.240862
56 1 0.0718709 0.42109 0.235862
57 1 0.0808906 0.616856 0.239884
58 1 0.0839986 0.560361 0.241215
59 1 0.0809541 0.38749 0.241297
60 1 0.0779269 0.42633 0.244385
61 1 0.0870547 0.620683 0.241466
62 1 0.0900246 0.561223 0.251589
63 1 0.0870115 0.39355 0.253025
64 1 0.0839423 0.428181 0.242531
65 1 0.0929565 0.62745 0.262411
66 1 0.0959783 0.564913 0.270119
67 1 0.0930053 0.391816 0.258729
68 1 0.0900519 0.431541 0.25602
69 1 0.0989576 0.630595 0.254347
70 1 0.101968 0.564059 0.244217
71 1 0.0989615 0.389476 0.259247
72 1 0.0959523 0.435706 0.262282
73 1 0.10487 0.623487 0.238984
74 1 0.107839 0.56385 0.253683
75 1 0.104917 0.395582 0.261249
76 1 0.101851 0.433604 0.254321
77 1 0.111063 0.620038 0.256284
78 1 0.113992 0.554296 0.259033
79 1 0.110851 0.394287 0.271778
80 1 0.107915 0.436859 0.265387
81 1 0.116987 0.614572 0.256738
82 1 0.120083 0.552329 0.257841
83 1 0.116924 0.386652 0.267454
84 1 0.113903 0.424408 0.265852
85 1 0.123102 0.610604 0.254904
86 1 0.126043 0.551852 0.255408
87 1 0.122832 0.380326 0.255075
88 1 0.11989 0.424348 0.257695
89 1 0.129046 0.61131 0.250519
90 1 0.132122 0.553068 0.241496
91 1 0.128968 0.384984 0.251097
92 1 0.125756 0.415925 0.254402
93 1 0.135095 0.612353 0.25081
94 1 0.138056 0.551667 0.248045
95 1 0.134897 0.383284 0.24963
96 1 0.131974 0.42524 0.244625
97 1 0.140973 0.609905 0.253122
98 1 0.143961 0.547751 0.243653
99 1 0.140975 0.381236 0.246484
100 1 0.137975 0.420317 0.243163
101 1 0.146993 0.609849 0.234354
102 1 0.150181 0.550229 0.232254
103 1 0.147099 0.381967 0.250549
104 1 0.143983 0.415988 0.248819
105 1 0.153211 0.604032 0.224564
106 1 0.156203 0.542458 0.223864
107 1 0.152954 0.378652 0.248354
108 1 0.150036 0.420867 0.244472
109 1 0.159142 0.606315 0.235369
110 1 0.16211 0.544227 0.238154
111 1 0.158945 0.371081 0.227317
112 1 0.155983 0.408955 0.226034
113 1 0.16521 0.596878 0.245117
114 1 0.168024 0.530681 0.236491
115 1 0.165003 0.365459 0.229675
116 1 0.161969 0.410897 0.236006
117 1 0.171169 0.585496 0.238183
118 1 0.174154 0.524477 0.227547
119 1 0.171064 0.35946 0.217682
120 1 0.168095 0.398715 0.226784
121 1 0.177336 0.585532 0.220972
122 1 0.180165 0.521637 0.20934
123 1 0.177134 0.352417 0.204849
124 1 0.174167 0.394872 0.21498
125 1 0.183307 0.578365 0.212888
126 1 0.186305 0.521952 0.208397
127 1 0.183126 0.353969 0.201142
128 1 0.180147 0.39195 0.200986
129 1 0.189356 0.577238 0.217132
130 1 0.192273 0.514286 0.217313
131 1 0.1891 0.345871 0.203723
132 1 0.186169 0.389314 0.201452
133 1 0.1952 0.56745 0.225326
134 1 0.198344 0.504494 0.21481
135 1 0.195141 0.341379 0.195416
136 1 0.192119 0.381417 0.204734
137 1 0.201437 0.570098 0.223921
138 1 0.204454 0.505063 0.216085
139 1 0.201214 0.336804 0.199714
140 1 0.198246 0.37745 0.200325
141 1 0.207408 0.56647 0.223163
142 1 0.210431 0.506329 0.221873
143 1 0.207403 0.336508 0.190271
144 1 0.204304 0.371986 0.204626
145 1 0.213353 0.570944 0.236796
146 1 0.216392 0.512859 0.222918
147 1 0.213481 0.34595 0.193404
148 1 0.210475 0.37794 0.197357
149 1 0.219427 0.570803 0.231018
150 1 0.222277 0.510068 0.227416
151 1 0.219411 0.344172 0.200086
152 1 0.216421 0.384201 0.20097
153 1 0.225404 0.568538 0.22798
154 1 0.228374 0.505479 0.229835
155 1 0.225294 0.338521 0.208429
156 1 0.222312 0.382786 0.213061
157 1 0.231371 0.564625 0.235262
158 1 0.234295 0.497204 0.230081
159 1 0.231266 0.330063 0.214174
160 1 0.228332 0.376325 0.210844
161 1 0.237231 0.557458 0.231179
162 1 0.240172 0.496362 0.230225
163 1 0.237334 0.331305 0.221443
164 1 0.234308 0.367735 0.222588
165 1 0.24325 0.552056 0.23643
166 1 0.246379 0.491738 0.2375
167 1 0.243233 0.329144 0.228115
168 1 0.240204 0.36841 0.216777
169 1 0.249321 0.550767 0.237858
170 1 0.252276 0.486255 0.242076
171 1 0.249357 0.322216 0.248113
172 1 0.24634 0.363469 0.238387
173 1 0.255239 0.551213 0.252853
174 1 0.258405 0.49287 0.259384
175 1 0.255237 0.319593 0.261054
176 1 0.252325 0.358479 0.25041
177 1 0.261278 0.554127 0.256551
178 1 0.264302 0.484544 0.26814
179 1 0.261291 0.322834 0.271007
180 1 0.258276 0.360466 0.268983
181 1 0.267391 0.547606 0.266383
182 1 0.270173 0.481561 0.262808
183 1 0.267312 0.312673 0.270501
184 1 0.264434 0.353069 0.271248
185 1 0.273186 0.538326 0.251326
186 1 0.276226 0.479105 0.249494
187 1 0.273322 0.313925 0.265577
188 1 0.2703 0.350485 0.271878
189 1 0.279439 0.542439 0.248688
190 1 0.282441 0.478132 0.253618
191 1 0.279373 0.310729 0.263976
192 1 0.27626 0.348839 0.257925
193 1 0.285378 0.539797 0.252266
194 1 0.288423 0.482271 0.257511
195 1 0.285514 0.314364 0.280521
196 1 0.282475 0.351176 0.268229
197 1 0.291519 0.545661 0.249913
198 1 0.294525 0.481018 0.258848
199 1 0.291503 0.313176 0.275588
200 1 0.288578 0.35352 0.270433
201 1 0.297503 0.543959 0.260213
202 1 0.30051 0.476283 0.272901
203 1 0.297485 0.316968 0.289447
204 1 0.294528 0.35227 0.274947
205 1 0.303462 0.539381 0.27243
206 1 0.306534 0.475089 0.282268
207 1 0.303472 0.302302 0.301033
208 1 0.300528 0.348189 0.29433
209 1 0.309473 0.53295 0.273833
210 1 0.312504 0.475652 0.283365
211 1 0.30958 0.302368 0.300569
212 1 0.306499 0.338428 0.296705
213 1 0.315538 0.532233 0.271535
214 1 0.318571 0.472656 0.271038
215 1 0.315413 0.307299 0.299231
216 1 0.312453 0.346699 0.294992
217 1 0.321661 0.532135 0.263805
218 1 0.324584 0.480512 0.275796
219 1 0.321513 0.305507 0.292243
220 1 0.318412 0.343844 0.294241
221 1 0.327575 0.538807 0.26252
222 1 0.330588 0.477345 0.270088
223 1 0.327429 0.31065 0.295522
224 1 0.324431 0.347844 0.291082
225 1 0.333645 0.53646 0.272143
226 1 0.336556 0.471253 0.285066
227 1 0.333484 0.30693 0.303841
228 1 0.330452 0.350162 0.28832
229 1 0.339646 0.530434 0.28298
230 1 0.342663 0.469145 0.291118
231 1 0.339587 0.305665 0.306121
232 1 0.336564 0.343958 0.304722
233 1 0.34566 0.527748 0.282724
234 1 0.348733 0.458448 0.288024
235 1 0.345658 0.29814 0.306556
236 1 0.34267 0.335913 0.300262
237 1 0.351701 0.521261 0.283708
238 1 0.354619 0.459251 0.275653
239 1 0.351673 0.289761 0.292558
240 1 0.348679 0.332044 0.29943
241 1 0.357742 0.521141 0.270811
242 1 0.360615 0.460159 0.280896
243 1 0.35767 0.296287 0.285426
244 1 0.354678 0.329759 0.284846
245 1 0.363555 0.523401 0.276896
246 1 0.366648 0.456524 0.283169
247 1 0.363446 0.290601 0.301624
248 1 0.360583 0.330931 0.289599
249 1 0.369645 0.515028 0.276725
250 1 0.37253 0.452634 0.280594
251 1 0.369434 0.283815 0.288024
252 1 0.366455 0.324745 0.292371
253 1 0.375532 0.512497 0.272679
254 1 0.378508 0.448246 0.271623
255 1 0.37541 0.283349 0.285079
256 1 0.372414 0.319856 0.285281
257 1 0.381608 0.511652 0.267197
258 1 0.384622 0.453683 0.273138
259 1 0.38162 0.281408 0.288452
260 1 0.378546 0.319412 0.281735
261 1 0.387573 0.514805 0.266355
262 1 0.390661 0.452028 0.271672
263 1 0.387555 0.285651 0.290129
264 1 0.384568 0.323614 0.286908
265 1 0.393553 0.511974 0.276934
266 1 0.396506 0.455869 0.287711
267 1 0.393616 0.285384 0.302783
268 1 0.390517 0.320966 0.291496
269 1 0.399554 0.522665 0.283414
270 1 0.402522 0.464985 0.285823
271 1 0.399636 0.292035 0.31324
272 1 0.396614 0.326763 0.304405
273 1 0.405545 0.526728 0.270221
274 1 0.408552 0.469376 0.276599
275 1 0.405589 0.299433 0.304613
276 1 0.402541 0.333958 0.306074
277 1 0.411609 0.532707 0.275377
278 1 0.414614 0.471858 0.286095
279 1 0.411621 0.310501 0.315326
280 1 0.408607 0.342495 0.30021
281 1 0.417522 0.53065 0.276582
282 1 0.420681 0.467875 0.28226
283 1 0.417655 0.303188 0.309626
284 1 0.414636 0.342071 0.303909
285 1 0.423657 0.532822 0.266966
286 1 0.426606 0.475268 0.272059
287 1 0.423597 0.311534 0.302556
288 1 0.420635 0.342375 0.303104
289 1 0.429616 0.530748 0.251762
290 1 0.432481 0.4639 0.254073
291 1 0.429468 0.305922 0.291871
292 1 0.426466 0.348786 0.290938
293 1 0.435454 0.52718 0.247277
294 1 0.43844 0.467198 0.26355
295 1 0.43543 0.304299 0.28462
296 1 0.432439 0.338653 0.2753
297 1 0.441503 0.528716 0.271733
298 1 0.444533 0.465912 0.287177
299 1 0.441385 0.2969 0.298228
300 1 0.438459 0.334567 0.281724
301 1 0.447516 0.519583 0.280268
302 1 0.450426 0.456105 0.286733
303 1 0.44731 0.298356 0.303844
304 1 0.444341 0.33785 0.298726
305 1 0.453437 0.511795 0.273482
306 1 0.456297 0.441924 0.279143
307 1 0.453167 0.279883 0.302918
308 1 0.450371 0.329103 0.302446
309 1 0.459282 0.506894 0.285612
310 1 0.462192 0.440055 0.292756
311 1 0.459086 0.272182 0.29841
312 1 0.456168 0.312933 0.287555
313 1 0.465213 0.495355 0.289201
314 1 0.468241 0.423947 0.295487
315 1 0.464891 0.261296 0.306255
316 1 0.462075 0.308544 0.302135
317 1 0.471269 0.481877 0.28698
318 1 0.474006 0.411728 0.292428
319 1 0.470694 0.252117 0.312163
320 1 0.46784 0.296969 0.310563
321 1 0.477091 0.464074 0.297795
322 1 0.479887 0.397793 0.312674
323 1 0.476666 0.23775 0.314658
324 1 0.473822 0.285357 0.301032
325 1 0.482929 0.446761 0.317671
326 1 0.485638 0.378569 0.344319
327 1 0.48234 0.223687 0.327738
328 1 0.479639 0.271278 0.317526
329 1 0.488647 0.418499 0.36115
330 1 0.491064 0.352493 0.414028
331 1 0.487966 0.215471 0.377964
332 1 0.485285 0.257308 0.341026
333 1 0.494058 0.382164 0.451508
334 1 0.49595 0.322754 0.529617
335 1 0.492811 0.184022 0.496905
336 1 0.49067 0.229297 0.430139
337 1 0.498877 0.359921 0.564527
338 1 0.500777 0.316094 0.655766
339 1 0.497124 0.177241 0.649556
340 1 0.495252 0.205314 0.563868
341 1 0.503674 0.357309 0.688236
342 1 0.504615 0.34555 0.804262
343 1 0.500815 0.211991 0.813886
344 1 0.499444 0.216566 0.716658
345 1 0.506864 0.430436 0.840502
346 1 0.506288 0.505475 0.934442
347 1 0.502543 0.360774 0.967821
348 1 0.502759 0.276459 0.878819
349 1 0.50745 0.626537 0.920737
350 1 0.505085 0.71301 0.888877
351 1 0.501604 0.579744 0.983703
352 1 0.503239 0.475496 0.9954
353 1 0.505483 0.798138 0.796301
354 1 0.503005 0.813092 0.712799
355 1 0.49984 0.731634 0.840183
356 1 0.501856 0.682482 0.919671
357 1 0.503347 0.850147 0.593421
358 1 0.501063 0.844841 0.503312
359 1 0.497893 0.800987 0.647526
360 1 0.499783 0.792231 0.738743
361 1 0.501735 0.840828 0.386607
362 1 0.499352 0.830867 0.296174
363 1 0.496058 0.832988 0.4391
364 1 0.497799 0.82372 0.534005
365 1 0.499981 0.786196 0.185533
366 1 0.497561 0.727089 0.119365
367 1 0.494439 0.81567 0.235286
368 1 0.496231 0.835838 0.327838
369 1 0.497879 0.60379 0.0715674
370 1 0.495403 0.518728 0.0808119
371 1 0.492553 0.678494 0.0749221
372 1 0.494345 0.763092 0.127216
373 1 0.495869 0.390577 0.114819
374 1 0.493304 0.309495 0.148267
375 1 0.49015 0.459222 0.0868213
376 1 0.492102 0.551208 0.0693326
377 1 0.493686 0.210851 0.222577
378 1 0.491084 0.131168 0.265998
379 1 0.488216 0.248594 0.149311
380 1 0.490087 0.340327 0.118923
381 1 0.491307 0.0597152 0.367145
382 1 0.488551 0.0448011 0.44247
383 1 0.485891 0.0878837 0.27821
384 1 0.488058 0.150355 0.217011
385 1 0.489346 0.0774421 0.557266
386 1 0.488665 0.201745 0.582828
387 1 0.484462 0.149869 0.477271
388 1 0.4854 0.0617372 0.38716
389 1 0.490867 0.279713 0.631474
390 1 0.49135 0.398164 0.594472
391 1 0.486596 0.376211 0.521563
392 1 0.485822 0.249957 0.531639
393 1 0.494078 0.464111 0.616193
394 1 0.495496 0.555971 0.545671
395 1 0.490442 0.564929 0.481454
396 1 0.488992 0.46355 0.529092
397 1 0.498807 0.583196 0.548631
398 1 0.500782 0.616499 0.455476
399 1 0.496058 0.653545 0.390681
400 1 0.493532 0.61791 0.469722
401 1 0.504224 0.623833 0.45308
402 1 0.506779 0.636917 0.364193
403 1 0.502196 0.651859 0.288703
404 1 0.499393 0.660328 0.360181
405 1 0.510052 0.640115 0.378562
406 1 0.512968 0.597882 0.31465
407 1 0.508786 0.547703 0.224799
408 1 0.505644 0.617274 0.255144
409 1 0.516237 0.603706 0.340766
410 1 0.518928 0.570286 0.273448
411 1 0.51512 0.499709 0.157412
412 1 0.512194 0.530488 0.213788
413 1 0.522184 0.592874 0.310083
414 1 0.525002 0.559832 0.252916
415 1 0.521398 0.480487 0.127475
416 1 0.51836 0.504917 0.16962
417 1 0.528161 0.578353 0.2893
418 1 0.530925 0.540673 0.228584
419 1 0.527409 0.478235 0.0994668
420 1 0.524426 0.495961 0.148012
421 1 0.53423 0.552648 0.275139
422 1 0.537251 0.527214 0.214803
423 1 0.533673 0.470873 0.0763161
424 1 0.530567 0.491724 0.11566
425 1 0.540195 0.557487 0.258601
426 1 0.543233 0.531962 0.201969
427 1 0.539691 0.458154 0.0687454
428 1 0.536693 0.47672 0.104859
429 1 0.546203 0.555066 0.253276
430 1 0.549213 0.526236 0.194276
431 1 0.545938 0.454458 0.0519384
432 1 0.542898 0.47367 0.0898801
433 1 0.552239 0.551188 0.237984
434 1 0.555058 0.52523 0.180274
435 1 0.551966 0.444985 0.0472109
436 1 0.548974 0.469729 0.0837572
437 1 0.558309 0.562175 0.22399
438 1 0.561205 0.53327 0.173501
439 1 0.558038 0.442017 0.0441353
440 1 0.55504 0.46261 0.074758
441 1 0.564335 0.552538 0.221079
442 1 0.567149 0.523922 0.167903
443 1 0.563963 0.450908 0.0332989
444 1 0.561052 0.469078 0.0699486
445 1 0.570151 0.543417 0.223161
446 1 0.573095 0.523588 0.165124
447 1 0.570147 0.461677 0.0229864
448 1 0.567098 0.47424 0.0600026
449 1 0.576227 0.536129 0.216371
450 1 0.579194 0.52241 0.160956
451 1 0.576217 0.469007 0.015505
452 1 0.573217 0.477057 0.049434
453 1 0.582278 0.539416 0.214242
454 1 0.585211 0.5264 0.159914
455 1 0.582202 0.472831 0.00677896
456 1 0.579229 0.482766 0.0431411
457 1 0.588333 0.544501 0.207886
458 1 0.591428 0.522152 0.154455
459 1 0.588247 0.474202 0.00658674
460 1 0.585178 0.4906 0.0421344
461 1 0.594391 0.547278 0.204884
462 1 0.59741 0.521421 0.150133
463 1 0.594293 0.467183 0.00770954
464 1 0.59122 0.47767 0.0386061
465 1 0.600448 0.541606 0.203769
466 1 0.603352 0.516954 0.148009
467 1 0.600306 0.449166 0.00656609
468 1 0.597349 0.46959 0.0397688
469 1 0.606452 0.538336 0.201957
470 1 0.609489 0.516989 0.150057
471 1 0.606459 0.445647 0.00699451
472 1 0.603347 0.464869 0.037118
473 1 0.612414 0.539068 0.200415
474 1 0.615542 0.51774 0.150457
475 1 0.612444 0.445731 0.00606052
476 1 0.609437 0.461805 0.0390421
477 1 0.6185 0.544559 0.20287
478 1 0.621454 0.534269 0.144846
479 1 0.618454 0.456681 0.00392807
480 1 0.615446 0.468461 0.0337839
481 1 0.624402 0.554061 0.201793
482 1 0.627507 0.527743 0.149232
483 1 0.624427 0.464445 0.000781642
484 1 0.621394 0.479928 0.034362
485 1 0.630471 0.538636 0.213132
486 1 0.633507 0.504943 0.165875
487 1 0.630544 0.444941 0.0166678
488 1 0.627456 0.46955 0.0381204
489 1 0.636583 0.531773 0.219028
490 1 0.639624 0.501697 0.17395
491 1 0.636538 0.421187 0.0285569
492 1 0.633495 0.451337 0.0559162
493 1 0.642465 0.537028 0.223434
494 1 0.645655 0.508576 0.17491
495 1 0.64266 0.409128 0.042752
496 1 0.639518 0.434 0.0640525
497 1 0.648521 0.534402 0.22561
498 1 0.651466 0.495432 0.188135
499 1 0.648516 0.409492 0.0507589
500 1 0.645508 0.431931 0.07992
501 1 0.654595 0.537455 0.236066
502 1 0.657544 0.497672 0.19081
503 1 0.65447 0.404205 0.0599216
504 1 0.651549 0.424823 0.0869323
505 1 0.66061 0.542632 0.232291
506 1 0.663795 0.508431 0.178818
507 1 0.66062 0.400418 0.0624863
508 1 0.657558 0.422713 0.091342
509 1 0.6667 0.554229 0.229517
510 1 0.669748 0.514144 0.194924
511 1 0.666787 0.398484 0.0673008
512 1 0.663768 0.423827 0.0839199
513 1 0.672797 0.552907 0.233676
514 1 0.675763 0.515021 0.18729
515 1 0.672817 0.403433 0.0698553
516 1 0.66983 0.430879 0.0987693
517 1 0.678711 0.554933 0.229987
518 1 0.681597 0.513223 0.180264
519 1 0.678737 0.392054 0.0794042
520 1 0.675726 0.424657 0.0984843
521 1 0.684686 0.560655 0.22055
522 1 0.687703 0.513464 0.178917
523 1 0.684676 0.386194 0.0775047
524 1 0.681767 0.415299 0.101184
525 1 0.690713 0.558414 0.215567
526 1 0.693777 0.524411 0.168299
527 1 0.690641 0.400412 0.0613697
528 1 0.68762 0.42249 0.0923936
529 1 0.696733 0.556572 0.216449
530 1 0.699666 0.505135 0.182732
531 1 0.696679 0.393358 0.0674294
532 1 0.693605 0.425619 0.0859493
533 1 0.702636 0.55287 0.219278
534 1 0.705707 0.512165 0.176846
535 1 0.702792 0.39049 0.0704105
536 1 0.699797 0.415674 0.0932089
537 1 0.708904 0.558768 0.213215
538 1 0.711757 0.505697 0.184015
539 1 0.708829 0.385222 0.073368
540 1 0.705882 0.41648 0.0946998
541 1 0.714831 0.544151 0.227531
542 1 0.717795 0.502442 0.187044
543 1 0.714773 0.38396 0.070807
544 1 0.711851 0.407964 0.101926
545 1 0.720826 0.550282 0.223802
546 1 0.723841 0.50696 0.190766
547 1 0.720929 0.378494 0.0833619
548 1 0.717795 0.410049 0.0998532
549 1 0.726972 0.553662 0.219916
550 1 0.729931 0.502554 0.184683
551 1 0.726902 0.36807 0.0944625
552 1 0.723839 0.407513 0.114552
553 1 0.732965 0.556324 0.219594
554 1 0.736035 0.505543 0.188284
555 1 0.733044 0.362071 0.0957006
556 1 0.730013 0.395688 0.112034
557 1 0.739003 0.550404 0.224384
558 1 0.742082 0.501301 0.188056
559 1 0.739118 0.369162 0.0930676
560 1 0.736123 0.399844 0.116514
561 1 0.745031 0.547312 0.231997
562 1 0.748056 0.499239 0.200683
563 1 0.745233 0.372052 0.0978146
564 1 0.742151 0.399804 0.111657
565 1 0.750967 0.539002 0.24843
566 1 0.754078 0.494537 0.210314
567 1 0.751143 0.361242 0.104579
568 1 0.748146 0.397574 0.126716
569 1 0.757106 0.54215 0.248152
570 1 0.760169 0.502028 0.206341
571 1 0.757111 0.376087 0.103276
572 1 0.754095 0.391924 0.12862
573 1 0.763077 0.554886 0.239005
574 1 0.766184 0.517366 0.196737
575 1 0.762924 0.388998 0.090209
576 1 0.759941 0.411523 0.12331
577 1 0.769202 0.553558 0.235434
578 1 0.772159 0.515818 0.194371
579 1 0.769067 0.397896 0.0773793
580 1 0.765984 0.416384 0.100838
581 1 0.775067 0.566802 0.234273
582 1 0.778103 0.524817 0.193375
583 1 0.775194 0.406311 0.0775402
584 1 0.772063 0.428625 0.106527
585 1 0.781035 0.57721 0.225091
586 1 0.784131 0.540523 0.184689
587 1 0.781226 0.411291 0.0788824
588 1 0.778228 0.429436 0.106447
589 1 0.787023 0.593166 0.220479
590 1 0.790101 0.552172 0.18408
591 1 0.787199 0.413956 0.0890879
592 1 0.784169 0.447059 0.101216
593 1 0.79302 0.602425 0.221447
594 1 0.796016 0.561128 0.182275
595 1 0.793215 0.430126 0.0787294
596 1 0.79018 0.448138 0.107133
597 1 0.799025 0.607102 0.219595
598 1 0.802072 0.566324 0.177073
599 1 0.799107 0.437188 0.0761641
600 1 0.796132 0.463583 0.10056
601 1 0.804925 0.612135 0.215398
602 1 0.808053 0.566856 0.17951
603 1 0.805045 0.441396 0.0720497
604 1 0.802052 0.469312 0.0947501
605 1 0.811042 0.60788 0.221932
606 1 0.814082 0.558386 0.192548
607 1 0.81105 0.438376 0.0846265
608 1 0.808025 0.473782 0.0929137
609 1 0.816909 0.60362 0.232022
610 1 0.820047 0.563055 0.19822
611 1 0.816986 0.434101 0.0917938
612 1 0.813985 0.462444 0.111878
613 1 0.823077 0.601657 0.236379
614 1 0.826059 0.556404 0.195989
615 1 0.823104 0.43009 0.0911756
616 1 0.820069 0.460236 0.114394
617 1 0.829074 0.598706 0.24075
618 1 0.832098 0.553392 0.197499
619 1 0.829052 0.433463 0.0932047
620 1 0.826103 0.458454 0.116374
621 1 0.835038 0.601723 0.23695
622 1 0.838014 0.549523 0.207397
623 1 0.834957 0.422167 0.103013
624 1 0.832048 0.456819 0.120602
625 1 0.841149 0.597744 0.247092
626 1 0.844135 0.546829 0.213218
627 1 0.841083 0.416707 0.115733
628 1 0.837974 0.449947 0.129661
629 1 0.847072 0.596755 0.253465
630 1 0.850035 0.548945 0.217487
631 1 0.847048 0.424064 0.109461
632 1 0.844069 0.449918 0.137259
633 1 0.853003 0.597417 0.244863
634 1 0.856141 0.543827 0.215541
635 1 0.853038 0.417199 0.116686
636 1 0.850049 0.451432 0.134281
637 1 0.859156 0.598804 0.241694
638 1 0.862071 0.549004 0.20814
639 1 0.859097 0.40937 0.12001
640 1 0.856149 0.441827 0.144027
641 1 0.865226 0.599847 0.232557
642 1 0.868158 0.553962 0.197399
643 1 0.865151 0.408896 0.1192
644 1 0.862072 0.44268 0.136138
645 1 0.871056 0.606467 0.230738
646 1 0.874144 0.555204 0.206126
647 1 0.871088 0.410175 0.122016
648 1 0.86818 0.441334 0.137038
649 1 0.877102 0.616248 0.230616
650 1 0.880045 0.564426 0.206354
651 1 0.877178 0.407214 0.134138
652 1 0.874106 0.437109 0.145112
653 1 0.883134 0.611911 0.223699
654 1 0.886146 0.557559 0.199106
655 1 0.882925 0.408753 0.133042
656 1 0.880066 0.443821 0.150573
657 1 0.889192 0.614912 0.217155
658 1 0.892147 0.555327 0.198978
659 1 0.8889 0.406832 0.128373
660 1 0.885916 0.440974 0.145269
661 1 0.895156 0.608673 0.224267
662 1 0.898154 0.54826 0.200445
663 1 0.894931 0.398117 0.144257
664 1 0.891847 0.434415 0.15256
665 1 0.90115 0.603362 0.22765
666 1 0.904104 0.546078 0.20449
667 1 0.901038 0.384116 0.155424
668 1 0.898022 0.424595 0.162036
669 1 0.907116 0.602608 0.222952
670 1 0.910079 0.547606 0.194853
671 1 0.907047 0.393481 0.142463
672 1 0.904001 0.425824 0.162578
673 1 0.913239 0.609805 0.209743
674 1 0.916207 0.548302 0.202503
675 1 0.913278 0.384921 0.149319
676 1 0.910122 0.423769 0.154406
677 1 0.919094 0.608534 0.21671
678 1 0.922168 0.557859 0.196131
679 1 0.919371 0.394022 0.146734
680 1 0.916219 0.422402 0.158257
681 1 0.925126 0.621204 0.216784
682 1 0.928282 0.563878 0.192765
683 1 0.925322 0.406605 0.143374
684 1 0.922317 0.437489 0.150593
685 1 0.931202 0.62487 0.205544
686 1 0.934144 0.570671 0.183592
687 1 0.931372 0.407954 0.138736
688 1 0.928291 0.441117 0.157846
689 1 0.937171 0.629601 0.207151
690 1 0.94027 0.572358 0.189583
691 1 0.937383 0.411809 0.146758
692 1 0.934336 0.450938 0.148209
693 1 0.943195 0.631963 0.205877
694 1 0.946221 0.56688 0.187828
695 1 0.943309 0.411229 0.151896
696 1 0.940276 0.449319 0.158743
697 1 0.949305 0.625886 0.200752
698 1 0.952271 0.567286 0.188606
699 1 0.949351 0.400667 0.157899
700 1 0.946364 0.441164 0.164923
701 1 0.95528 0.629042 0.204256
702 1 0.958204 0.564559 0.194247
703 1 0.955273 0.397383 0.163014
704 1 0.952347 0.438079 0.169489
705 1 0.961322 0.624798 0.207523
706 1 0.964352 0.559401 0.200289
707 1 0.961268 0.39372 0.1663
708 1 0.958264 0.435907 0.170307
709 1 0.967198 0.620418 0.221003
710 1 0.970315 0.559707 0.217257
711 1 0.967356 0.392877 0.18119
712 1 0.964261 0.431663 0.175309
713 1 0.973356 0.617641 0.231282
714 1 0.976411 0.560196 0.224158
715 1 0.973285 0.394473 0.189681
716 1 0.970336 0.432037 0.190847
717 1 0.979399 0.616762 0.230799
718 1 0.982357 0.55673 0.232147
719 1 0.979318 0.388394 0.214244
720 1 0.976308 0.429114 0.21125
721 1 0.985306 0.622248 0.242744
722 1 0.988329 0.566451 0.237893
723 1 0.985382 0.396868 0.221711
724 1 0.982395 0.427084 0.222669
725 1 0.991296 0.627693 0.240185
726 1 0.994273 0.567553 0.24078
727 1 0.991386 0.402081 0.236872
728 1 0.988391 0.436992 0.233972
729 1 0.00872482 0.972382 0.24402
730 1 0.0117539 0.934952 0.24727
731 1 0.00874457 0.747545 0.242029
732 1 0.00576966 0.80968 0.240653
733 1 0.0146825 0.975106 0.239107
734 1 0.0177787 0.936653 0.248914
735 1 0.0147576 0.745445 0.250811
736 1 0.0117689 0.80508 0.244896
737 1 0.0207471 0.968671 0.227203
738 1 0.0237468 0.932917 0.221368
739 1 0.02082 0.745608 0.242181
740 1 0.0177675 0.804008 0.250839
741 1 0.0268064 0.970598 0.227728
742 1 0.0297591 0.929863 0.232469
743 1 0.0267887 0.745122 0.234625
744 1 0.0238446 0.80327 0.233374
745 1 0.0327557 0.970495 0.236656
746 1 0.0357807 0.930855 0.243215
747 1 0.0327006 0.739479 0.237463
748 1 0.0297461 0.800747 0.233486
749 1 0.0388208 0.972238 0.244083
750 1 0.0418046 0.929468 0.243455
751 1 0.038598 0.738361 0.243153
752 1 0.0357085 0.800352 0.243901
753 1 0.0447818 0.968682 0.24853
754 1 0.0477639 0.931056 0.247423
755 1 0.0447136 0.741343 0.240927
756 1 0.041671 0.800628 0.24107
757 1 0.0507344 0.968638 0.24848
758 1 0.0538647 0.934129 0.245234
759 1 0.0507599 0.74524 0.241106
760 1 0.047752 0.80148 0.247492
761 1 0.0569334 0.973074 0.244536
762 1 0.0600004 0.933457 0.239139
763 1 0.0568871 0.743658 0.239929
764 1 0.0537759 0.803204 0.248654
765 1 0.0629247 0.970567 0.243566
766 1 0.0658741 0.934457 0.242448
767 1 0.0627908 0.741741 0.230112
768 1 0.0598835 0.802761 0.233133
769 1 0.0689284 0.972989 0.232535
770 1 0.0718009 0.935393 0.235987
771 1 0.0688149 0.740323 0.23496
772 1 0.0658489 0.80585 0.235238
773 1 0.0748084 0.974776 0.243078
774 1 0.0778893 0.935157 0.235552
775 1 0.0749255 0.74282 0.225233
776 1 0.0718474 0.802812 0.230975
777 1 0.080827 0.978852 0.237928
778 1 0.0838545 0.937554 0.235408
779 1 0.0809636 0.743018 0.237377
780 1 0.0778133 0.804521 0.234118
781 1 0.0868488 0.979275 0.230194
782 1 0.0899053 0.945621 0.230266
783 1 0.0869896 0.751584 0.242698
784 1 0.0838288 0.806917 0.241211
785 1 0.0928833 0.985955 0.226271
786 1 0.0959976 0.947472 0.233299
787 1 0.0929314 0.755962 0.245988
788 1 0.0900109 0.816138 0.237288
789 1 0.0990426 0.987944 0.232421
790 1 0.102053 0.947045 0.234745
791 1 0.0989116 0.757531 0.248046
792 1 0.0959611 0.818858 0.246816
793 1 0.105021 0.981382 0.226925
794 1 0.10813 0.946138 0.218116
795 1 0.104945 0.754555 0.232623
796 1 0.102004 0.814482 0.240206
797 1 0.111214 0.979336 0.210434
798 1 0.114139 0.938843 0.218835
799 1 0.111101 0.749163 0.244314
800 1 0.108058 0.814912 0.234411
801 1 0.117172 0.97051 0.218104
802 1 0.120033 0.931697 0.234128
803 1 0.117095 0.744514 0.25013
804 1 0.11412 0.809305 0.240984
805 1 0.122986 0.970147 0.233146
806 1 0.12598 0.929277 0.23851
807 1 0.123144 0.740552 0.242022
808 1 0.120128 0.800217 0.238808
809 1 0.128973 0.968834 0.24455
810 1 0.131897 0.92872 0.246319
811 1 0.129042 0.738664 0.243065
812 1 0.126015 0.79802 0.246829
813 1 0.13494 0.967696 0.247752
814 1 0.137941 0.93429 0.257396
815 1 0.135058 0.739292 0.251887
816 1 0.132024 0.796723 0.244976
817 1 0.14098 0.971826 0.245835
818 1 0.144055 0.93107 0.24913
819 1 0.141098 0.743324 0.251902
820 1 0.137958 0.802389 0.257831
821 1 0.147035 0.965165 0.245345
822 1 0.150027 0.923711 0.236859
823 1 0.147144 0.736672 0.231015
824 1 0.144102 0.803561 0.241766
825 1 0.153172 0.959489 0.243168
826 1 0.156129 0.918069 0.246994
827 1 0.153227 0.732915 0.232584
828 1 0.150203 0.79347 0.234912
829 1 0.159131 0.956274 0.249917
830 1 0.162231 0.920717 0.255995
831 1 0.159107 0.72957 0.244838
832 1 0.156243 0.788764 0.242039
833 1 0.165342 0.956788 0.254641
834 1 0.168222 0.914734 0.257053
835 1 0.165239 0.724899 0.254853
836 1 0.162182 0.787375 0.250638
837 1 0.171414 0.945897 0.264439
838 1 0.174455 0.906107 0.260508
839 1 0.171242 0.714824 0.246741
840 1 0.168391 0.781285 0.257988
841 1 0.177449 0.940625 0.268972
842 1 0.180381 0.898249 0.260387
843 1 0.177259 0.713078 0.234701
844 1 0.174189 0.772335 0.243672
845 1 0.183303 0.935711 0.269318
846 1 0.186321 0.894484 0.265172
847 1 0.183321 0.709918 0.225593
848 1 0.180295 0.771407 0.234961
849 1 0.189307 0.931167 0.275662
850 1 0.192368 0.886483 0.272084
851 1 0.189417 0.706639 0.234343
852 1 0.186274 0.768418 0.241667
853 1 0.195317 0.929896 0.270266
854 1 0.19833 0.888566 0.260632
855 1 0.195285 0.696093 0.242699
856 1 0.192393 0.758577 0.251073
857 1 0.201319 0.923953 0.262489
858 1 0.204385 0.883696 0.259017
859 1 0.201301 0.698 0.238231
860 1 0.198363 0.75839 0.244109
861 1 0.207313 0.924498 0.262281
862 1 0.210344 0.882725 0.261915
863 1 0.207376 0.692296 0.23966
864 1 0.204313 0.754048 0.249513
865 1 0.213314 0.929697 0.27227
866 1 0.216325 0.894319 0.26686
867 1 0.213292 0.69546 0.251321
868 1 0.210357 0.753783 0.250575
869 1 0.219385 0.928756 0.269417
870 1 0.222372 0.880876 0.272981
871 1 0.219408 0.695024 0.240323
872 1 0.216262 0.760621 0.251884
873 1 0.225409 0.919045 0.280394
874 1 0.228459 0.8837 0.269345
875 1 0.225406 0.69765 0.246749
876 1 0.222339 0.752983 0.249926
877 1 0.231606 0.921617 0.270421
878 1 0.234521 0.878055 0.256578
879 1 0.231344 0.695667 0.244433
880 1 0.228338 0.753379 0.255158
881 1 0.237464 0.918849 0.252667
882 1 0.240377 0.873612 0.249154
883 1 0.23748 0.682986 0.234776
884 1 0.234435 0.749743 0.241904
885 1 0.2433 0.908181 0.246534
886 1 0.24628 0.873334 0.236556
887 1 0.243286 0.679399 0.23454
888 1 0.24039 0.7436 0.236922
889 1 0.249316 0.907774 0.229283
890 1 0.252258 0.867441 0.226454
891 1 0.249236 0.676903 0.240931
892 1 0.246258 0.736863 0.238407
893 1 0.255304 0.90233 0.22831
894 1 0.258317 0.8655 0.235499
895 1 0.255188 0.679088 0.241069
896 1 0.252265 0.736169 0.232515
897 1 0.261392 0.904639 0.235703
898 1 0.264335 0.866693 0.246315
899 1 0.261264 0.681031 0.247943
900 1 0.258309 0.738485 0.236281
901 1 0.267421 0.906439 0.247507
902 1 0.270393 0.864159 0.237398
903 1 0.267311 0.675441 0.253161
904 1 0.264327 0.736294 0.252572
905 1 0.273501 0.898815 0.231815
906 1 0.276596 0.856714 0.231219
907 1 0.273359 0.670329 0.245634
908 1 0.270376 0.734146 0.245067
909 1 0.27958 0.895085 0.229144