ITEM: TIMESTEP
248000
ITEM: NUMBER OF ATOMS
496
ITEM: BOX BOUNDS ss ss ss
-0.00904001 125.934
-0.0731038 10.3451
0.354035 11.3824
ITEM: ATOMS id type xs ys zs
1 1 0.00993198 0.437345 0.243025
2 1 0.019597 0.367619 0.24303
3 1 0.00981301 0.165441 0.243082
4 1 9.75812e-05 0.231391 0.243144
5 1 0.00989676 0.845566 0.24334
6 1 0.0195932 0.777782 0.243099
7 1 0.00976344 0.573104 0.242935
8 1 0.000104837 0.640876 0.242713
9 1 0.0305302 0.428567 0.242741
10 1 0.0410655 0.360307 0.244656
11 1 0.0307804 0.177445 0.248988
12 1 0.0202951 0.218364 0.245205
13 1 0.051833 0.427485 0.245351
14 1 0.0624315 0.359746 0.245973
15 1 0.0519616 0.175605 0.259195
16 1 0.0413235 0.218378 0.25084
17 1 0.0736093 0.422148 0.24125
18 1 0.0845295 0.35305 0.239592
19 1 0.0738016 0.169052 0.2569
20 1 0.0627418 0.21581 0.256671
21 1 0.0953454 0.421046 0.240442
22 1 0.106145 0.354309 0.261369
23 1 0.095099 0.175506 0.278082
24 1 0.0848772 0.213527 0.25535
25 1 0.116785 0.418747 0.253183
26 1 0.12749 0.354299 0.263961
27 1 0.116506 0.167706 0.282407
28 1 0.106019 0.210646 0.278417
29 1 0.138382 0.420374 0.2434
30 1 0.14895 0.35537 0.255281
31 1 0.137956 0.173781 0.282818
32 1 0.127123 0.211774 0.282758
33 1 0.15955 0.422183 0.248256
34 1 0.170823 0.36023 0.261338
35 1 0.159831 0.184353 0.305418
36 1 0.148999 0.219168 0.285517
37 1 0.181448 0.424453 0.246863
38 1 0.191938 0.363483 0.275412
39 1 0.181403 0.185867 0.323268
40 1 0.17081 0.223338 0.300922
41 1 0.202513 0.424803 0.256402
42 1 0.21327 0.361052 0.274866
43 1 0.202704 0.187594 0.325214
44 1 0.192013 0.225126 0.317662
45 1 0.224202 0.424331 0.25804
46 1 0.235655 0.357804 0.276241
47 1 0.224276 0.180329 0.326957
48 1 0.213664 0.223214 0.313204
49 1 0.24635 0.425547 0.25693
50 1 0.257079 0.366691 0.285269
51 1 0.245952 0.184495 0.330276
52 1 0.234975 0.219914 0.313025
53 1 0.267466 0.424042 0.260101
54 1 0.278367 0.364635 0.285596
55 1 0.267384 0.192696 0.341026
56 1 0.256702 0.229411 0.329638
57 1 0.289175 0.427522 0.264546
58 1 0.30002 0.361702 0.284436
59 1 0.289275 0.186456 0.335358
60 1 0.278238 0.227974 0.328577
61 1 0.311188 0.43134 0.26258
62 1 0.32241 0.365705 0.279516
63 1 0.310802 0.189611 0.337978
64 1 0.300204 0.227417 0.326609
65 1 0.333088 0.423468 0.252392
66 1 0.343626 0.367564 0.283415
67 1 0.332179 0.20135 0.348222
68 1 0.32137 0.230931 0.32441
69 1 0.35414 0.424713 0.260241
70 1 0.364592 0.35735 0.293016
71 1 0.353727 0.198047 0.376302
72 1 0.343275 0.235532 0.342667
73 1 0.375462 0.409981 0.273621
74 1 0.385539 0.348387 0.305804
75 1 0.374519 0.186315 0.385832
76 1 0.364301 0.23187 0.360678
77 1 0.397145 0.403417 0.279881
78 1 0.407539 0.344327 0.324679
79 1 0.395847 0.187869 0.412382
80 1 0.385204 0.222765 0.379087
81 1 0.418494 0.395321 0.293584
82 1 0.42831 0.330377 0.33939
83 1 0.416885 0.186477 0.433639
84 1 0.406285 0.226216 0.400906
85 1 0.439202 0.378418 0.307859
86 1 0.44916 0.318498 0.357325
87 1 0.437536 0.167774 0.446743
88 1 0.427774 0.2188 0.418231
89 1 0.460316 0.370374 0.334749
90 1 0.470044 0.310881 0.390978
91 1 0.458652 0.148257 0.458991
92 1 0.448633 0.188496 0.425444
93 1 0.480952 0.35833 0.392708
94 1 0.489951 0.320714 0.473061
95 1 0.478462 0.177787 0.514991
96 1 0.468794 0.196912 0.455703
97 1 0.500198 0.375204 0.493556
98 1 0.5074 0.359863 0.593061
99 1 0.495277 0.227458 0.643799
100 1 0.48767 0.220853 0.555392
101 1 0.517968 0.404533 0.609259
102 1 0.52421 0.409265 0.717104
103 1 0.51072 0.293491 0.788518
104 1 0.50417 0.280077 0.693216
105 1 0.53489 0.460825 0.729716
106 1 0.539132 0.518997 0.841471
107 1 0.525417 0.410681 0.923992
108 1 0.519877 0.357107 0.829681
109 1 0.54742 0.623119 0.835997
110 1 0.545668 0.749283 0.905505
111 1 0.532768 0.62838 1.00754
112 1 0.532842 0.507047 0.952531
113 1 0.549309 0.856876 0.82319
114 1 0.540774 0.927516 0.750035
115 1 0.529902 0.853876 0.920242
116 1 0.535722 0.752857 0.976885
117 1 0.542024 0.969976 0.623152
118 1 0.5331 0.939397 0.53132
119 1 0.522305 0.918288 0.708765
120 1 0.529751 0.912917 0.805313
121 1 0.534618 0.899904 0.401294
122 1 0.526195 0.846008 0.318299
123 1 0.515164 0.882881 0.485213
124 1 0.522035 0.914229 0.578106
125 1 0.528437 0.78747 0.198059
126 1 0.520201 0.726505 0.11845
127 1 0.508805 0.819998 0.259024
128 1 0.514835 0.849744 0.361867
129 1 0.521205 0.616644 0.0396521
130 1 0.51282 0.526865 0.00772229
131 1 0.502508 0.690736 0.068465
132 1 0.50882 0.762506 0.147201
133 1 0.513864 0.383139 0.0149198
134 1 0.504746 0.304199 0.0650071
135 1 0.494578 0.463661 0.000207095
136 1 0.501699 0.573472 0.0011872
137 1 0.506269 0.213936 0.16644
138 1 0.49745 0.158811 0.244424
139 1 0.486223 0.260804 0.102991
140 1 0.493383 0.33906 0.0415791
141 1 0.498447 0.0851706 0.363818
142 1 0.489564 0.0262956 0.433282
143 1 0.478985 0.0999612 0.277987
144 1 0.486094 0.16924 0.19938
145 1 0.490262 0.0237764 0.576898
146 1 0.480686 0.0473093 0.657539
147 1 0.471234 -0.00118306 0.478635
148 1 0.478402 0.0219526 0.387193
149 1 0.482946 0.151496 0.751559
150 1 0.480311 0.288624 0.715892
151 1 0.46603 0.172255 0.64237
152 1 0.469463 0.0377815 0.609332
153 1 0.488096 0.390717 0.727533
154 1 0.490968 0.478715 0.629771
155 1 0.47422 0.409854 0.563657
156 1 0.470502 0.30025 0.636961
157 1 0.501419 0.550212 0.620921
158 1 0.506718 0.593059 0.502225
159 1 0.489038 0.568082 0.440056
160 1 0.483157 0.493639 0.533053
161 1 0.518483 0.608565 0.487959
162 1 0.525883 0.597951 0.377275
163 1 0.509076 0.61565 0.300929
164 1 0.499919 0.614116 0.391686
165 1 0.537864 0.591262 0.379778
166 1 0.547153 0.553044 0.293917
167 1 0.531163 0.538228 0.202255
168 1 0.520687 0.592362 0.259003
169 1 0.559628 0.561467 0.299971
170 1 0.568997 0.502573 0.245347
171 1 0.555171 0.390399 0.174402
172 1 0.543911 0.47065 0.193333
173 1 0.580783 0.532934 0.265072
174 1 0.591601 0.4685 0.228895
175 1 0.578484 0.32387 0.152151
176 1 0.567581 0.383156 0.169707
177 1 0.602917 0.518889 0.253681
178 1 0.613425 0.44156 0.228734
179 1 0.600129 0.293027 0.154251
180 1 0.58956 0.344585 0.168527
181 1 0.624623 0.502586 0.246099
182 1 0.634725 0.439262 0.214382
183 1 0.622364 0.26552 0.158335
184 1 0.611465 0.30875 0.171255
185 1 0.646489 0.487482 0.241128
186 1 0.657015 0.41319 0.218478
187 1 0.64454 0.252438 0.161934
188 1 0.633226 0.297294 0.175192
189 1 0.667817 0.47586 0.242887
190 1 0.678807 0.405854 0.219939
191 1 0.666829 0.240089 0.155627
192 1 0.656176 0.279357 0.166909
193 1 0.689334 0.467445 0.235837
194 1 0.699694 0.395613 0.224815
195 1 0.68913 0.225636 0.162341
196 1 0.678176 0.26772 0.165564
197 1 0.711079 0.453473 0.243462
198 1 0.721959 0.386844 0.235319
199 1 0.710416 0.213632 0.174982
200 1 0.699741 0.257379 0.183473
201 1 0.732788 0.449097 0.247363
202 1 0.743546 0.381654 0.234701
203 1 0.732063 0.204969 0.183008
204 1 0.721029 0.247331 0.192699
205 1 0.754695 0.445821 0.243771
206 1 0.764983 0.381387 0.222405
207 1 0.753979 0.207655 0.188737
208 1 0.743047 0.244508 0.194926
209 1 0.775915 0.447184 0.230934
210 1 0.786826 0.373616 0.217091
211 1 0.775792 0.20017 0.187652
212 1 0.764992 0.239967 0.202116
213 1 0.798077 0.43984 0.232065
214 1 0.808739 0.374114 0.228689
215 1 0.796993 0.196158 0.186033
216 1 0.786353 0.237856 0.193194
217 1 0.819229 0.446565 0.242337
218 1 0.82976 0.379833 0.23989
219 1 0.818921 0.20135 0.20516
220 1 0.807925 0.233001 0.204082
221 1 0.840732 0.440341 0.258112
222 1 0.851555 0.374773 0.248048
223 1 0.840271 0.197344 0.21011
224 1 0.829449 0.242444 0.218957
225 1 0.861961 0.437399 0.245667
226 1 0.872223 0.369835 0.232329
227 1 0.861391 0.191779 0.223114
228 1 0.850758 0.234816 0.225177
229 1 0.88341 0.434747 0.248684
230 1 0.894126 0.367471 0.242636
231 1 0.883092 0.185756 0.21389
232 1 0.87227 0.229379 0.222489
233 1 0.90459 0.434775 0.253206
234 1 0.915217 0.370117 0.247986
235 1 0.904797 0.187872 0.221325
236 1 0.893607 0.230244 0.224068
237 1 0.926223 0.430711 0.254322
238 1 0.937037 0.36469 0.242812
239 1 0.926511 0.187809 0.22378
240 1 0.91597 0.223692 0.231139
241 1 0.948024 0.43491 0.241999
242 1 0.958846 0.375052 0.239828
243 1 0.948238 0.186969 0.225203
244 1 0.937409 0.225182 0.229277
245 1 0.969401 0.440137 0.243075
246 1 0.979912 0.372232 0.244057
247 1 0.969627 0.192241 0.239446
248 1 0.959023 0.232688 0.236239
249 1 0.0304123 0.815957 0.23657
250 1 0.0409518 0.77429 0.230429
251 1 0.0305165 0.568304 0.241095
252 1 0.0200913 0.636914 0.243298
253 1 0.0518148 0.817959 0.222492
254 1 0.0626463 0.774014 0.222322
255 1 0.0519214 0.564573 0.243238
256 1 0.041142 0.632253 0.236036
257 1 0.0739411 0.812439 0.21046
258 1 0.0844545 0.768607 0.212476
259 1 0.0739307 0.563652 0.230175
260 1 0.0631435 0.631795 0.237458
261 1 0.0949525 0.812324 0.203814
262 1 0.106209 0.770436 0.196513
263 1 0.0951108 0.561712 0.226369
264 1 0.0848486 0.625665 0.22431
265 1 0.116834 0.807448 0.183464
266 1 0.127764 0.771062 0.183116
267 1 0.116367 0.563182 0.229718
268 1 0.105712 0.628586 0.218578
269 1 0.138334 0.811489 0.171216
270 1 0.149249 0.76843 0.169688
271 1 0.13794 0.560658 0.217632
272 1 0.127273 0.628522 0.208499
273 1 0.159958 0.805123 0.145589
274 1 0.170385 0.762088 0.150976
275 1 0.159733 0.559267 0.216586
276 1 0.148747 0.623681 0.207214
277 1 0.181452 0.800777 0.135186
278 1 0.192153 0.760913 0.147937
279 1 0.180899 0.559585 0.214492
280 1 0.17065 0.622878 0.196736
281 1 0.203211 0.798912 0.135786
282 1 0.213872 0.756075 0.145005
283 1 0.202842 0.562281 0.220361
284 1 0.191523 0.624157 0.201105
285 1 0.224421 0.789116 0.130675
286 1 0.235369 0.755402 0.144332
287 1 0.224515 0.562642 0.213523
288 1 0.213826 0.623229 0.197708
289 1 0.246114 0.796232 0.140558
290 1 0.256921 0.752496 0.147495
291 1 0.245964 0.554519 0.207132
292 1 0.235274 0.61612 0.18652
293 1 0.267838 0.788627 0.127197
294 1 0.278766 0.742263 0.131703
295 1 0.267431 0.55103 0.206289
296 1 0.256948 0.61289 0.187026
297 1 0.289431 0.782184 0.115681
298 1 0.300178 0.744459 0.121627
299 1 0.288982 0.556387 0.207969
300 1 0.278001 0.612983 0.186241
301 1 0.310758 0.779405 0.108786
302 1 0.321909 0.74776 0.119011
303 1 0.310985 0.558185 0.207132
304 1 0.300157 0.616862 0.184384
305 1 0.332841 0.783593 0.1135
306 1 0.344202 0.752684 0.136431
307 1 0.332657 0.554372 0.201041
308 1 0.322275 0.61544 0.175081
309 1 0.355239 0.782868 0.108872
310 1 0.366178 0.733331 0.119657
311 1 0.354546 0.547423 0.204604
312 1 0.343937 0.61932 0.184257
313 1 0.377207 0.752676 0.100877
314 1 0.388127 0.705094 0.109452
315 1 0.376055 0.532911 0.206672
316 1 0.365437 0.598954 0.175625
317 1 0.399468 0.734206 0.0960769
318 1 0.410278 0.691767 0.114468
319 1 0.397691 0.525981 0.215138
320 1 0.387107 0.578295 0.173854
321 1 0.421738 0.713223 0.0871381
322 1 0.4324 0.673771 0.114206
323 1 0.419545 0.508524 0.22635
324 1 0.408818 0.57154 0.188541
325 1 0.443844 0.684079 0.0970046
326 1 0.454468 0.638028 0.11788
327 1 0.44141 0.486404 0.228587
328 1 0.430553 0.555592 0.190598
329 1 0.466078 0.652353 0.104505
330 1 0.476696 0.602809 0.138437
331 1 0.462797 0.471151 0.253934
332 1 0.453048 0.53505 0.20356
333 1 0.488611 0.585337 0.136909
334 1 0.499582 0.503648 0.179078
335 1 0.483462 0.445956 0.301984
336 1 0.474556 0.506202 0.23491
337 1 0.511021 0.438267 0.195956
338 1 0.520539 0.389737 0.264592
339 1 0.504056 0.418598 0.384075
340 1 0.495393 0.451591 0.292503
341 1 0.532357 0.370142 0.305846
342 1 0.541892 0.392124 0.39865
343 1 0.523601 0.417234 0.502081
344 1 0.516456 0.415345 0.388556
345 1 0.552765 0.437352 0.440458
346 1 0.559629 0.501722 0.528301
347 1 0.540814 0.474089 0.618478
348 1 0.535375 0.43153 0.503404
349 1 0.568424 0.584774 0.569094
350 1 0.571591 0.691373 0.648964
351 1 0.554631 0.616716 0.736426
352 1 0.55168 0.528577 0.630453
353 1 0.576764 0.813689 0.651472
354 1 0.574338 0.946933 0.625473
355 1 0.559685 0.852228 0.765907
356 1 0.562432 0.71606 0.733458
357 1 0.572624 1.00151 0.501022
358 1 0.566212 0.977994 0.396618
359 1 0.553202 0.982976 0.576758
360 1 0.5626 0.947952 0.665249
361 1 0.565906 0.900372 0.29119
362 1 0.559186 0.812772 0.217668
363 1 0.545801 0.900723 0.360305
364 1 0.554514 0.961071 0.443407
365 1 0.559649 0.712572 0.128799
366 1 0.552813 0.629096 0.0606352
367 1 0.539698 0.764892 0.168534
368 1 0.547786 0.830552 0.245079
369 1 0.551547 0.499799 0.0145432
370 1 0.544611 0.391913 0.0137256
371 1 0.532427 0.583205 0.0179081
372 1 0.541367 0.657087 0.0742526
373 1 0.543243 0.283562 0.0889737
374 1 0.537315 0.221549 0.178314
375 1 0.524832 0.344746 0.0451981
376 1 0.53351 0.436855 0.0124364
377 1 0.536543 0.1699 0.296555
378 1 0.529016 0.132015 0.384595
379 1 0.516991 0.189133 0.208471
380 1 0.526365 0.244102 0.139016
381 1 0.528592 0.0950179 0.503069
382 1 0.521475 0.055018 0.591247
383 1 0.509142 0.0887815 0.411788
384 1 0.518141 0.134822 0.330182
385 1 0.51977 0.0527888 0.715631
386 1 0.512787 0.0740481 0.809978
387 1 0.500853 0.0362463 0.62363
388 1 0.510242 0.0527073 0.540494
389 1 0.511617 0.141872 0.916787
390 1 0.506761 0.249781 0.968132
391 1 0.493207 0.151253 0.818322
392 1 0.501959 0.0738569 0.751722
393 1 0.509706 0.37591 0.995486
394 1 0.510548 0.50338 0.943505
395 1 0.495171 0.387357 0.829759
396 1 0.496733 0.259768 0.894789
397 1 0.51793 0.598273 0.922525
398 1 0.523124 0.653635 0.825227
399 1 0.50756 0.552834 0.721922
400 1 0.503302 0.488453 0.835421
401 1 0.532389 0.708855 0.786936
402 1 0.538925 0.730023 0.690484
403 1 0.523879 0.624754 0.599379
404 1 0.517987 0.608862 0.713085
405 1 0.547725 0.781656 0.646415
406 1 0.555346 0.778972 0.560925
407 1 0.542429 0.636536 0.484803
408 1 0.534986 0.662084 0.585493
409 1 0.564995 0.822663 0.517105
410 1 0.575018 0.804608 0.461453
411 1 0.562016 0.644427 0.395418
412 1 0.553208 0.681086 0.472569
413 1 0.585022 0.85025 0.458525
414 1 0.595366 0.820081 0.425075
415 1 0.583066 0.642839 0.339716
416 1 0.573051 0.687259 0.395458
417 1 0.606064 0.862045 0.43305
418 1 0.61668 0.823229 0.397232
419 1 0.604696 0.637685 0.315268
420 1 0.594472 0.695959 0.356372
421 1 0.627256 0.850425 0.412872
422 1 0.637685 0.809608 0.383118
423 1 0.625926 0.627264 0.296073
424 1 0.615863 0.698153 0.326127
425 1 0.648098 0.847122 0.401436
426 1 0.658727 0.809747 0.379546
427 1 0.647209 0.62291 0.294115
428 1 0.636804 0.682873 0.318794
429 1 0.669446 0.837173 0.384517
430 1 0.679607 0.793467 0.359158
431 1 0.667943 0.6066 0.288184
432 1 0.657563 0.676965 0.319802
433 1 0.690628 0.827294 0.360921
434 1 0.701066 0.790083 0.349398
435 1 0.689124 0.597935 0.277751
436 1 0.678873 0.663797 0.310101
437 1 0.711625 0.827163 0.356905
438 1 0.722192 0.783471 0.335846
439 1 0.711101 0.587116 0.273092
440 1 0.700074 0.656829 0.297554
441 1 0.732688 0.823851 0.352029
442 1 0.743388 0.787196 0.330818
443 1 0.732901 0.585554 0.273618
444 1 0.721964 0.650696 0.286578
445 1 0.754617 0.826503 0.337435
446 1 0.765472 0.779152 0.330166
447 1 0.754596 0.585247 0.278842
448 1 0.743566 0.651507 0.289486
449 1 0.776046 0.823025 0.336579
450 1 0.786972 0.788686 0.312455
451 1 0.776388 0.581678 0.266261
452 1 0.765691 0.646177 0.293235
453 1 0.797901 0.823591 0.318114
454 1 0.808663 0.784382 0.300254
455 1 0.798089 0.583285 0.251361
456 1 0.787334 0.648094 0.27447
457 1 0.819181 0.828104 0.31156
458 1 0.829917 0.790938 0.303194
459 1 0.818959 0.582931 0.257648
460 1 0.808456 0.646424 0.270183
461 1 0.841096 0.822197 0.317626
462 1 0.851716 0.779785 0.314631
463 1 0.841061 0.575509 0.28114
464 1 0.829977 0.647607 0.278535
465 1 0.862226 0.823918 0.319859
466 1 0.872844 0.781906 0.309186
467 1 0.862284 0.572826 0.272073
468 1 0.85173 0.636942 0.288858
469 1 0.883633 0.822841 0.314642
470 1 0.89409 0.781489 0.29915
471 1 0.883629 0.572817 0.272013
472 1 0.872906 0.643629 0.288403
473 1 0.904885 0.818964 0.29598
474 1 0.915618 0.778538 0.281182
475 1 0.904876 0.571936 0.264814
476 1 0.894259 0.639439 0.28062
477 1 0.926286 0.819649 0.281723
478 1 0.937262 0.786656 0.26985
479 1 0.926548 0.573423 0.256469
480 1 0.915466 0.639613 0.267197
481 1 0.94818 0.830976 0.26066
482 1 0.958846 0.788938 0.25278
483 1 0.947702 0.57747 0.248002
484 1 0.937176 0.64017 0.259135
485 1 0.969306 0.831506 0.250172
486 1 0.979762 0.79172 0.245535
487 1 0.969503 0.579886 0.244415
488 1 0.958967 0.647841 0.246998
489 1 0.990252 0.436756 0.243069
490 1 0.999911 0.36885 0.242987
491 1 0.990119 0.164388 0.242839
492 1 0.980416 0.231983 0.242973
493 1 0.990189 0.844486 0.243091
494 1 0.999901 0.778643 0.243107
495 1 0.990075 0.572502 0.243066
496 1 0.980417 0.642206 0.243154
