ITEM: TIMESTEP
434000
ITEM: NUMBER OF ATOMS
496
ITEM: BOX BOUNDS ss ss ss
-0.00904001 128.186
0.372557 10.4049
0.197781 11.3792
ITEM: ATOMS id type xs ys zs
1 1 0.00975755 0.409745 0.253675
2 1 0.0192528 0.337337 0.25368
3 1 0.00964067 0.127382 0.253731
4 1 9.58675e-05 0.195869 0.253791
5 1 0.00972295 0.833669 0.253985
6 1 0.0192491 0.763277 0.253747
7 1 0.00959197 0.550727 0.253586
8 1 0.000102996 0.621106 0.253367
9 1 0.029994 0.40063 0.253394
10 1 0.0403443 0.329744 0.255283
11 1 0.0302398 0.139848 0.259555
12 1 0.0199387 0.182341 0.255825
13 1 0.0509977 0.395284 0.254423
14 1 0.061355 0.328897 0.263941
15 1 0.0511767 0.135834 0.273735
16 1 0.0405978 0.182356 0.261383
17 1 0.0729327 0.399221 0.263747
18 1 0.0840373 0.340615 0.275078
19 1 0.0728887 0.142494 0.289453
20 1 0.0623655 0.178283 0.271206
21 1 0.0942679 0.410965 0.267817
22 1 0.104643 0.331222 0.269085
23 1 0.0943651 0.147705 0.28772
24 1 0.0833796 0.187193 0.291454
25 1 0.115717 0.402951 0.257355
26 1 0.127006 0.337053 0.273439
27 1 0.115781 0.145515 0.283179
28 1 0.104995 0.186022 0.28184
29 1 0.1378 0.399521 0.25311
30 1 0.148768 0.339544 0.265065
31 1 0.137338 0.151606 0.288545
32 1 0.126408 0.187283 0.283162
33 1 0.159354 0.409379 0.260175
34 1 0.169963 0.344793 0.275444
35 1 0.158833 0.156371 0.309461
36 1 0.148209 0.193941 0.290809
37 1 0.180571 0.407467 0.248308
38 1 0.191869 0.345375 0.266859
39 1 0.181169 0.173441 0.330746
40 1 0.169963 0.202702 0.314111
41 1 0.202767 0.415992 0.253032
42 1 0.213713 0.354106 0.278769
43 1 0.202253 0.174129 0.346079
44 1 0.191582 0.213516 0.320988
45 1 0.224256 0.419133 0.256842
46 1 0.234638 0.353314 0.281585
47 1 0.224022 0.176575 0.345269
48 1 0.213323 0.220174 0.330789
49 1 0.245756 0.421253 0.266917
50 1 0.256076 0.356806 0.295838
51 1 0.245292 0.174883 0.356337
52 1 0.234543 0.218048 0.334591
53 1 0.266948 0.419358 0.267439
54 1 0.277507 0.358339 0.295318
55 1 0.267088 0.188038 0.381431
56 1 0.256225 0.222184 0.35876
57 1 0.288557 0.41563 0.263966
58 1 0.299244 0.356548 0.296698
59 1 0.288224 0.197905 0.390272
60 1 0.277632 0.23028 0.369588
61 1 0.309846 0.421515 0.274985
62 1 0.32083 0.36534 0.311286
63 1 0.309591 0.200478 0.405872
64 1 0.298931 0.230827 0.371586
65 1 0.331784 0.417616 0.2812
66 1 0.341642 0.356587 0.314428
67 1 0.33047 0.204264 0.401288
68 1 0.320028 0.235673 0.382002
69 1 0.352653 0.412258 0.288037
70 1 0.363034 0.348718 0.324673
71 1 0.351768 0.195377 0.413216
72 1 0.341224 0.230486 0.386288
73 1 0.373769 0.409277 0.297715
74 1 0.384668 0.352254 0.327055
75 1 0.373233 0.180886 0.416555
76 1 0.363071 0.220198 0.394714
77 1 0.395789 0.403556 0.301038
78 1 0.406274 0.342207 0.342182
79 1 0.39482 0.188834 0.435516
80 1 0.384253 0.224334 0.402221
81 1 0.416783 0.392063 0.303535
82 1 0.427536 0.329291 0.3484
83 1 0.41614 0.178093 0.436138
84 1 0.405352 0.221105 0.415436
85 1 0.438328 0.378393 0.319021
86 1 0.448509 0.328289 0.373428
87 1 0.436678 0.172078 0.458966
88 1 0.426431 0.208573 0.420318
89 1 0.459499 0.377397 0.346537
90 1 0.469089 0.328953 0.404121
91 1 0.457486 0.169186 0.476607
92 1 0.44727 0.20639 0.447082
93 1 0.480481 0.361245 0.389585
94 1 0.488996 0.322813 0.476233
95 1 0.477212 0.189158 0.533931
96 1 0.467695 0.21027 0.471503
97 1 0.499974 0.356372 0.491837
98 1 0.506904 0.336433 0.591449
99 1 0.494077 0.224611 0.654129
100 1 0.486852 0.232797 0.569461
101 1 0.518054 0.371143 0.609487
102 1 0.523052 0.393143 0.723485
103 1 0.509672 0.293427 0.791222
104 1 0.503144 0.274061 0.699716
105 1 0.533217 0.455585 0.731836
106 1 0.537904 0.526317 0.83135
107 1 0.524368 0.421017 0.92928
108 1 0.518405 0.359102 0.839791
109 1 0.546395 0.622557 0.815441
110 1 0.545013 0.768092 0.865891
111 1 0.532306 0.659838 0.981089
112 1 0.531626 0.520003 0.946705
113 1 0.548989 0.871621 0.780692
114 1 0.540755 0.948714 0.713133
115 1 0.53014 0.878891 0.877799
116 1 0.535477 0.779941 0.937816
117 1 0.541743 0.982931 0.580111
118 1 0.53318 0.961136 0.491584
119 1 0.523431 0.926651 0.66825
120 1 0.529986 0.932206 0.767482
121 1 0.534427 0.91815 0.364612
122 1 0.525934 0.867279 0.291015
123 1 0.515263 0.909728 0.459784
124 1 0.522668 0.930119 0.544009
125 1 0.526807 0.798651 0.175811
126 1 0.518094 0.742232 0.106246
127 1 0.508264 0.836225 0.249362
128 1 0.514574 0.877028 0.339946
129 1 0.518456 0.615681 0.032639
130 1 0.509473 0.526406 0.0162293
131 1 0.499947 0.700714 0.0765355
132 1 0.507269 0.774129 0.139964
133 1 0.510248 0.374538 0.0361209
134 1 0.501734 0.297037 0.0869315
135 1 0.491792 0.466267 0.0168128
136 1 0.498553 0.581371 0.0122769
137 1 0.502329 0.198466 0.186862
138 1 0.493626 0.13663 0.264222
139 1 0.483807 0.259413 0.133928
140 1 0.490713 0.337728 0.0676041
141 1 0.495493 0.0835588 0.38215
142 1 0.487127 0.0312156 0.46685
143 1 0.476283 0.0932457 0.311498
144 1 0.482673 0.163548 0.228266
145 1 0.488347 0.0226888 0.598252
146 1 0.479103 0.061943 0.684749
147 1 0.469152 0.00817874 0.519047
148 1 0.476062 0.0221253 0.421128
149 1 0.48218 0.175398 0.774513
150 1 0.479906 0.319249 0.726107
151 1 0.464938 0.209767 0.656748
152 1 0.467424 0.0660992 0.636456
153 1 0.488522 0.418756 0.724105
154 1 0.491838 0.49726 0.613456
155 1 0.475067 0.444849 0.554566
156 1 0.470774 0.34092 0.643535
157 1 0.503334 0.542388 0.595936
158 1 0.509337 0.571696 0.484233
159 1 0.491511 0.577156 0.421725
160 1 0.484456 0.519845 0.513943
161 1 0.520959 0.584644 0.471365
162 1 0.52818 0.570295 0.36474
163 1 0.51153 0.62458 0.289499
164 1 0.502464 0.603976 0.379037
165 1 0.539917 0.558321 0.370068
166 1 0.548828 0.512919 0.293409
167 1 0.534591 0.502459 0.188637
168 1 0.523178 0.587789 0.242488
169 1 0.561249 0.506149 0.315449
170 1 0.571578 0.447849 0.255406
171 1 0.556905 0.373624 0.138223
172 1 0.546487 0.429388 0.190887
173 1 0.583113 0.483804 0.279536
174 1 0.593718 0.431262 0.229997
175 1 0.580903 0.309543 0.111296
176 1 0.568875 0.359446 0.144508
177 1 0.604927 0.49019 0.256304
178 1 0.615335 0.431411 0.210296
179 1 0.603219 0.283721 0.113183
180 1 0.592313 0.322147 0.139699
181 1 0.626145 0.476911 0.244974
182 1 0.636879 0.410062 0.217282
183 1 0.625002 0.26705 0.110431
184 1 0.613945 0.311943 0.130761
185 1 0.647927 0.465653 0.245481
186 1 0.658545 0.400754 0.211491
187 1 0.646772 0.243162 0.125216
188 1 0.635773 0.292132 0.138696
189 1 0.669699 0.455732 0.239712
190 1 0.679894 0.385673 0.21097
191 1 0.66879 0.236492 0.124581
192 1 0.65784 0.276783 0.144437
193 1 0.691054 0.450637 0.233719
194 1 0.701658 0.377332 0.213439
195 1 0.690467 0.211825 0.130513
196 1 0.679847 0.256972 0.141412
197 1 0.712572 0.431411 0.240944
198 1 0.723457 0.365004 0.214565
199 1 0.712163 0.201392 0.133985
200 1 0.701462 0.247671 0.147396
201 1 0.73399 0.430042 0.23636
202 1 0.74494 0.365765 0.219767
203 1 0.734029 0.191866 0.145362
204 1 0.723039 0.228708 0.157043
205 1 0.755511 0.426672 0.24682
206 1 0.766271 0.356289 0.22015
207 1 0.755715 0.184963 0.14858
208 1 0.744811 0.225462 0.161751
209 1 0.777287 0.416456 0.245791
210 1 0.788214 0.35652 0.225456
211 1 0.776627 0.166356 0.172297
212 1 0.766021 0.219123 0.173184
213 1 0.798986 0.423623 0.240209
214 1 0.80981 0.361431 0.222025
215 1 0.798559 0.176032 0.17098
216 1 0.78773 0.211283 0.180339
217 1 0.82015 0.422745 0.241058
218 1 0.831267 0.357302 0.230329
219 1 0.820071 0.176443 0.188968
220 1 0.809321 0.215103 0.190446
221 1 0.841473 0.425357 0.249219
222 1 0.851931 0.354542 0.233947
223 1 0.841107 0.164229 0.197132
224 1 0.830798 0.21229 0.200425
225 1 0.862936 0.416252 0.242192
226 1 0.874194 0.352776 0.227189
227 1 0.86298 0.167968 0.19843
228 1 0.852333 0.204114 0.205711
229 1 0.884776 0.419317 0.244355
230 1 0.8956 0.354915 0.237673
231 1 0.884623 0.160676 0.209728
232 1 0.874027 0.201241 0.209904
233 1 0.906285 0.416319 0.253422
234 1 0.916584 0.343673 0.247602
235 1 0.905965 0.159341 0.20922
236 1 0.89522 0.202239 0.216743
237 1 0.927669 0.412357 0.257237
238 1 0.938692 0.344288 0.247382
239 1 0.927724 0.157226 0.221237
240 1 0.916704 0.195087 0.222157
241 1 0.94953 0.413016 0.254161
242 1 0.959834 0.345056 0.250521
243 1 0.949384 0.149691 0.245015
244 1 0.938834 0.197501 0.236562
245 1 0.970205 0.412645 0.253724
246 1 0.980531 0.342128 0.254692
247 1 0.970426 0.155213 0.250145
248 1 0.960009 0.197216 0.246981
249 1 0.0298782 0.802921 0.247307
250 1 0.0402326 0.759651 0.241251
251 1 0.0299806 0.545741 0.251771
252 1 0.0197385 0.616991 0.253943
253 1 0.0507218 0.798178 0.223161
254 1 0.0617495 0.759029 0.213733
255 1 0.0507886 0.539903 0.246194
256 1 0.0404194 0.61215 0.246781
257 1 0.0724388 0.804349 0.209797
258 1 0.0836764 0.765168 0.209681
259 1 0.0720606 0.541398 0.235736
260 1 0.061402 0.606479 0.235007
261 1 0.0943012 0.808833 0.205781
262 1 0.104816 0.766961 0.207263
263 1 0.0946012 0.554541 0.243854
264 1 0.0831839 0.61674 0.230063
265 1 0.116208 0.807595 0.198621
266 1 0.127028 0.766129 0.202633
267 1 0.116088 0.548998 0.24009
268 1 0.105225 0.622974 0.231662
269 1 0.137774 0.80184 0.193692
270 1 0.148928 0.766303 0.192702
271 1 0.137455 0.547138 0.235287
272 1 0.126808 0.62215 0.227466
273 1 0.158881 0.817572 0.17746
274 1 0.170024 0.77409 0.18827
275 1 0.159239 0.551078 0.234396
276 1 0.148623 0.615343 0.223873
277 1 0.180683 0.814685 0.180238
278 1 0.191867 0.77251 0.181001
279 1 0.180632 0.558109 0.218577
280 1 0.169759 0.627274 0.211758
281 1 0.202789 0.811714 0.164639
282 1 0.21367 0.766365 0.165062
283 1 0.20276 0.556293 0.212039
284 1 0.191398 0.617888 0.203063
285 1 0.2243 0.80711 0.14516
286 1 0.235273 0.7635 0.148109
287 1 0.223745 0.551721 0.211216
288 1 0.21316 0.619594 0.195401
289 1 0.245697 0.79938 0.128988
290 1 0.256692 0.75311 0.133931
291 1 0.245345 0.554289 0.212521
292 1 0.234722 0.617595 0.188382
293 1 0.267637 0.790425 0.120048
294 1 0.278008 0.748682 0.135267
295 1 0.267187 0.552351 0.215575
296 1 0.256425 0.615977 0.188215
297 1 0.288729 0.785545 0.106324
298 1 0.299593 0.73799 0.119659
299 1 0.288256 0.547418 0.215131
300 1 0.277704 0.609732 0.191802
301 1 0.310182 0.770702 0.0962906
302 1 0.321085 0.729545 0.115584
303 1 0.309474 0.548353 0.213161
304 1 0.299302 0.609052 0.18605
305 1 0.331696 0.760491 0.0897906
306 1 0.342299 0.723517 0.111055
307 1 0.331718 0.540605 0.216772
308 1 0.320826 0.599165 0.18382
309 1 0.353678 0.747567 0.0900091
310 1 0.364635 0.716336 0.109312
311 1 0.352804 0.532305 0.216433
312 1 0.342399 0.592732 0.181442
313 1 0.375317 0.749419 0.0826377
314 1 0.385932 0.709377 0.112174
315 1 0.374862 0.532404 0.225777
316 1 0.364141 0.591858 0.186877
317 1 0.397268 0.733383 0.0884978
318 1 0.408507 0.696741 0.10515
319 1 0.39612 0.525135 0.225468
320 1 0.385619 0.586681 0.192978
321 1 0.420081 0.719516 0.085273
322 1 0.43047 0.672998 0.115713
323 1 0.417573 0.50393 0.224354
324 1 0.407309 0.569226 0.188115
325 1 0.44183 0.690275 0.0961811
326 1 0.452987 0.644825 0.124903
327 1 0.43955 0.495295 0.243415
328 1 0.42905 0.557346 0.200957
329 1 0.465181 0.646216 0.101139
330 1 0.475583 0.601995 0.13654
331 1 0.461324 0.486085 0.261689
332 1 0.450675 0.539658 0.213605
333 1 0.487974 0.592363 0.161599
334 1 0.500257 0.515837 0.192547
335 1 0.483229 0.442289 0.294867
336 1 0.473552 0.508267 0.238733
337 1 0.512575 0.431062 0.213615
338 1 0.522806 0.38478 0.285118
339 1 0.504376 0.396479 0.38076
340 1 0.495821 0.434851 0.2905
341 1 0.533575 0.348705 0.322256
342 1 0.542153 0.356886 0.412002
343 1 0.52359 0.379354 0.499295
344 1 0.516068 0.392052 0.394053
345 1 0.552109 0.405208 0.45416
346 1 0.558467 0.479216 0.547187
347 1 0.539983 0.4412 0.628618
348 1 0.535102 0.394014 0.513737
349 1 0.56717 0.563597 0.572144
350 1 0.570871 0.68489 0.634903
351 1 0.55404 0.60881 0.723196
352 1 0.550379 0.500136 0.640763
353 1 0.57615 0.81979 0.629937
354 1 0.572678 0.967271 0.577335
355 1 0.559011 0.863857 0.723194
356 1 0.561429 0.719469 0.702736
357 1 0.571251 0.997865 0.447533
358 1 0.564971 0.956475 0.352163
359 1 0.552644 0.984084 0.535673
360 1 0.561665 0.957475 0.626961
361 1 0.564424 0.863185 0.251212
362 1 0.557691 0.792608 0.178794
363 1 0.545446 0.912312 0.321978
364 1 0.554024 0.959266 0.400712
365 1 0.556637 0.687787 0.0925656
366 1 0.549534 0.606659 0.0329563
367 1 0.537639 0.76454 0.145359
368 1 0.547049 0.832792 0.209411
369 1 0.547905 0.467445 0.00450105
370 1 0.541154 0.360864 0.0236807
371 1 0.529291 0.565111 0.0189897
372 1 0.538262 0.645948 0.0581375
373 1 0.539682 0.257889 0.109137
374 1 0.532992 0.193738 0.188306
375 1 0.521334 0.325845 0.0632605
376 1 0.529998 0.413243 0.0206261
377 1 0.532726 0.136955 0.307957
378 1 0.525562 0.105913 0.400198
379 1 0.513215 0.177757 0.229165
380 1 0.522317 0.227322 0.157355
381 1 0.524949 0.0682951 0.518505
382 1 0.517964 0.039448 0.615827
383 1 0.506169 0.0768627 0.430469
384 1 0.514685 0.116401 0.3474
385 1 0.517777 0.0527231 0.738904
386 1 0.5108 0.0840106 0.833656
387 1 0.498719 0.0231861 0.649975
388 1 0.507562 0.0346789 0.562898
389 1 0.510839 0.162855 0.937513
390 1 0.505462 0.27668 0.974042
391 1 0.492409 0.165734 0.832964
392 1 0.499809 0.0748818 0.776929
393 1 0.508551 0.413654 0.998095
394 1 0.510106 0.530925 0.933703
395 1 0.495678 0.405652 0.826573
396 1 0.496043 0.282508 0.894386
397 1 0.517817 0.621863 0.899812
398 1 0.523387 0.664936 0.799466
399 1 0.508913 0.545447 0.708688
400 1 0.504315 0.504133 0.821583
401 1 0.532065 0.723172 0.753543
402 1 0.538902 0.730704 0.665692
403 1 0.525374 0.599143 0.585571
404 1 0.519552 0.59395 0.694171
405 1 0.547686 0.789024 0.605481
406 1 0.555471 0.773439 0.526729
407 1 0.543747 0.614196 0.474487
408 1 0.536925 0.634703 0.570842
409 1 0.565339 0.807991 0.487188
410 1 0.575683 0.786443 0.444488
411 1 0.563686 0.613852 0.38925
412 1 0.554376 0.654957 0.456834
413 1 0.585893 0.835134 0.449011
414 1 0.596528 0.802113 0.421683
415 1 0.584628 0.606545 0.349013
416 1 0.574422 0.657235 0.390831
417 1 0.607082 0.843429 0.430374
418 1 0.617667 0.797771 0.408459
419 1 0.60562 0.607548 0.329816
420 1 0.595064 0.669787 0.364523
421 1 0.628182 0.830145 0.436098
422 1 0.638891 0.791081 0.423384
423 1 0.626787 0.599245 0.315139
424 1 0.616974 0.665965 0.356213
425 1 0.650389 0.819408 0.435854
426 1 0.660469 0.777881 0.40478
427 1 0.648525 0.589959 0.319001
428 1 0.637767 0.655901 0.35299
429 1 0.671031 0.818018 0.41282
430 1 0.681258 0.781757 0.378272
431 1 0.670235 0.585411 0.299895
432 1 0.659791 0.649707 0.340343
433 1 0.692006 0.817335 0.392224
434 1 0.702499 0.779048 0.364338
435 1 0.691308 0.586854 0.279234
436 1 0.681029 0.652556 0.316164
437 1 0.713462 0.817328 0.378087
438 1 0.723801 0.769591 0.360312
439 1 0.713073 0.572318 0.28602
440 1 0.702329 0.637608 0.310111
441 1 0.73459 0.811391 0.369754
442 1 0.745187 0.767383 0.355959
443 1 0.73417 0.566901 0.287026
444 1 0.723824 0.636153 0.303094
445 1 0.755808 0.809585 0.363328
446 1 0.766452 0.767302 0.342594
447 1 0.755949 0.560352 0.294007
448 1 0.745269 0.626951 0.3166
449 1 0.777126 0.809316 0.336659
450 1 0.788086 0.771554 0.326589
451 1 0.777307 0.557063 0.287877
452 1 0.766805 0.623238 0.308095
453 1 0.79881 0.819281 0.324343
454 1 0.809326 0.778782 0.310677
455 1 0.798813 0.560065 0.279453
456 1 0.787869 0.62461 0.300181
457 1 0.820024 0.823992 0.305612
458 1 0.830831 0.782339 0.293093
459 1 0.820142 0.566857 0.275
460 1 0.809673 0.631549 0.2976
461 1 0.8414 0.824272 0.302499
462 1 0.852758 0.78059 0.303493
463 1 0.84106 0.565531 0.273832
464 1 0.830502 0.632502 0.279875
465 1 0.863827 0.8205 0.308764
466 1 0.874369 0.773067 0.305362
467 1 0.863233 0.556189 0.272514
468 1 0.852225 0.626402 0.28696
469 1 0.884711 0.812836 0.307813
470 1 0.895308 0.773722 0.295456
471 1 0.884859 0.558622 0.266169
472 1 0.873839 0.626729 0.284822
473 1 0.906186 0.814604 0.298429
474 1 0.916372 0.769406 0.289806
475 1 0.906387 0.559991 0.268293
476 1 0.895703 0.624476 0.274071
477 1 0.926814 0.817834 0.295467
478 1 0.937765 0.779872 0.282367
479 1 0.927391 0.554832 0.278821
480 1 0.91679 0.62167 0.279375
481 1 0.949033 0.815503 0.269018
482 1 0.959834 0.774862 0.263296
483 1 0.949034 0.559581 0.261405
484 1 0.93803 0.624123 0.270204
485 1 0.970111 0.819068 0.260724
486 1 0.980383 0.777752 0.25615
487 1 0.970304 0.557769 0.255046
488 1 0.959953 0.628339 0.257593
489 1 0.990689 0.409133 0.253718
490 1 1.00018 0.338615 0.253637
491 1 0.990558 0.126289 0.253491
492 1 0.981026 0.196484 0.253623
493 1 0.990627 0.832548 0.253739
494 1 1.00017 0.764172 0.253755
495 1 0.990515 0.550101 0.253715
496 1 0.981026 0.622487 0.253801
