ITEM: TIMESTEP
372000
ITEM: NUMBER OF ATOMS
496
ITEM: BOX BOUNDS ss ss ss
-0.00904001 127.45
0.188702 10.1928
0.228361 11.4223
ITEM: ATOMS id type xs ys zs
1 1 0.00981387 0.429281 0.250658
2 1 0.0193639 0.356669 0.250663
3 1 0.00969631 0.14612 0.250714
4 1 9.64208e-05 0.2148 0.250775
5 1 0.00977907 0.854403 0.250969
6 1 0.0193602 0.783812 0.250731
7 1 0.00964734 0.570661 0.25057
8 1 0.000103591 0.641239 0.250351
9 1 0.0301671 0.42014 0.250378
10 1 0.0405771 0.349054 0.252265
11 1 0.0304143 0.158621 0.256532
12 1 0.0200538 0.201234 0.252806
13 1 0.0513121 0.411466 0.25798
14 1 0.0624159 0.336895 0.268134
15 1 0.0511293 0.153817 0.267832
16 1 0.0408321 0.201249 0.258358
17 1 0.072965 0.408299 0.25804
18 1 0.0837609 0.343641 0.263314
19 1 0.073366 0.14644 0.281053
20 1 0.0627195 0.188093 0.274387
21 1 0.0939883 0.416106 0.256587
22 1 0.10486 0.357096 0.279208
23 1 0.0946334 0.159603 0.288954
24 1 0.0839649 0.1954 0.283437
25 1 0.115682 0.428661 0.269526
26 1 0.126124 0.355904 0.280464
27 1 0.116335 0.16658 0.304913
28 1 0.105335 0.206218 0.293098
29 1 0.137146 0.424091 0.277513
30 1 0.147903 0.35731 0.300715
31 1 0.137327 0.16658 0.316666
32 1 0.126703 0.210341 0.306618
33 1 0.158137 0.418645 0.285116
34 1 0.169661 0.357507 0.29343
35 1 0.158954 0.162727 0.336986
36 1 0.148344 0.206125 0.322859
37 1 0.180539 0.417463 0.265098
38 1 0.190809 0.344923 0.283592
39 1 0.18033 0.166512 0.347241
40 1 0.169896 0.208215 0.335167
41 1 0.201844 0.413963 0.26709
42 1 0.212713 0.345484 0.292296
43 1 0.201917 0.165157 0.34226
44 1 0.191036 0.202833 0.330072
45 1 0.223425 0.409245 0.276221
46 1 0.234409 0.346253 0.288779
47 1 0.223858 0.168919 0.35215
48 1 0.212622 0.205063 0.335069
49 1 0.244908 0.411727 0.265107
50 1 0.256004 0.347915 0.287025
51 1 0.245034 0.171282 0.357881
52 1 0.234563 0.212092 0.340529
53 1 0.266594 0.411347 0.270875
54 1 0.276814 0.346443 0.303032
55 1 0.265812 0.174948 0.36373
56 1 0.255618 0.21584 0.343996
57 1 0.287715 0.413189 0.282339
58 1 0.298106 0.352163 0.30944
59 1 0.287319 0.173208 0.378117
60 1 0.276847 0.205236 0.358018
61 1 0.309063 0.416508 0.289939
62 1 0.319695 0.356729 0.32902
63 1 0.308204 0.171584 0.382994
64 1 0.297853 0.217533 0.367845
65 1 0.330114 0.411826 0.301036
66 1 0.341103 0.351683 0.332245
67 1 0.330332 0.172936 0.396619
68 1 0.31891 0.209266 0.378996
69 1 0.352502 0.40838 0.310136
70 1 0.36244 0.342991 0.340195
71 1 0.351007 0.169963 0.396318
72 1 0.340889 0.213583 0.381963
73 1 0.373042 0.414427 0.320405
74 1 0.383643 0.356157 0.353367
75 1 0.372953 0.171015 0.412299
76 1 0.36199 0.206024 0.387654
77 1 0.394836 0.411013 0.323828
78 1 0.405193 0.350602 0.367714
79 1 0.393644 0.184338 0.440496
80 1 0.383535 0.219974 0.404988
81 1 0.415861 0.410175 0.342073
82 1 0.426296 0.346898 0.379516
83 1 0.414879 0.179206 0.464714
84 1 0.40449 0.219899 0.43431
85 1 0.437321 0.394975 0.343927
86 1 0.448077 0.337614 0.38706
87 1 0.436099 0.192465 0.48404
88 1 0.425046 0.226467 0.459898
89 1 0.458415 0.378348 0.357551
90 1 0.468466 0.321589 0.399801
91 1 0.456493 0.175101 0.495701
92 1 0.446347 0.221908 0.465934
93 1 0.479184 0.367974 0.397545
94 1 0.487756 0.332563 0.479661
95 1 0.476692 0.184139 0.529775
96 1 0.466924 0.206951 0.476156
97 1 0.498764 0.385611 0.490629
98 1 0.505918 0.362167 0.591047
99 1 0.493419 0.230947 0.644546
100 1 0.486205 0.229613 0.564892
101 1 0.516768 0.393969 0.600943
102 1 0.5231 0.410578 0.712169
103 1 0.509218 0.30645 0.778738
104 1 0.502437 0.286308 0.689633
105 1 0.533609 0.46953 0.716807
106 1 0.53826 0.525349 0.828114
107 1 0.524459 0.423131 0.921007
108 1 0.51862 0.361264 0.82669
109 1 0.546697 0.628692 0.816639
110 1 0.54539 0.769033 0.870834
111 1 0.532563 0.649782 0.976534
112 1 0.532054 0.514312 0.941519
113 1 0.549045 0.881307 0.79073
114 1 0.540341 0.953523 0.733675
115 1 0.530367 0.888575 0.894703
116 1 0.535591 0.778214 0.947005
117 1 0.540939 0.997955 0.597702
118 1 0.532172 0.980238 0.51536
119 1 0.522224 0.958703 0.696761
120 1 0.529792 0.955533 0.786204
121 1 0.533154 0.938466 0.385129
122 1 0.524498 0.890609 0.311999
123 1 0.514506 0.924006 0.48428
124 1 0.522026 0.957409 0.572874
125 1 0.525053 0.81745 0.197217
126 1 0.516334 0.767154 0.126629
127 1 0.506465 0.8626 0.275083
128 1 0.513855 0.895661 0.360922
129 1 0.516906 0.655856 0.039572
130 1 0.507636 0.55968 0.0159116
131 1 0.498585 0.72779 0.0943774
132 1 0.505516 0.800472 0.163442
133 1 0.508883 0.409879 0.0222663
134 1 0.500348 0.321196 0.0773329
135 1 0.490557 0.500599 0.0259665
136 1 0.497212 0.613147 0.0229077
137 1 0.501411 0.219012 0.1769
138 1 0.493191 0.162038 0.255038
139 1 0.482778 0.280744 0.12865
140 1 0.489452 0.36761 0.0683132
141 1 0.494875 0.10095 0.373661
142 1 0.486863 0.0386908 0.450895
143 1 0.475396 0.103346 0.303877
144 1 0.481752 0.176531 0.220397
145 1 0.488236 0.0223521 0.58467
146 1 0.479014 0.0491966 0.673748
147 1 0.468334 0.00107375 0.509935
148 1 0.47526 0.0218776 0.409488
149 1 0.481906 0.154418 0.762326
150 1 0.479633 0.300078 0.727536
151 1 0.464863 0.19458 0.661085
152 1 0.466904 0.0588218 0.630171
153 1 0.48816 0.410341 0.731571
154 1 0.490742 0.504629 0.630038
155 1 0.473892 0.437258 0.569689
156 1 0.470168 0.325388 0.649852
157 1 0.501383 0.564459 0.608137
158 1 0.506755 0.598163 0.495112
159 1 0.489244 0.588681 0.436918
160 1 0.483017 0.523397 0.534118
161 1 0.518258 0.608287 0.480875
162 1 0.525486 0.600715 0.372652
163 1 0.508889 0.645492 0.290655
164 1 0.500547 0.627872 0.384891
165 1 0.538232 0.589 0.372621
166 1 0.54698 0.549636 0.28929
167 1 0.531543 0.539339 0.188152
168 1 0.521131 0.614162 0.251256
169 1 0.558773 0.544401 0.296985
170 1 0.568312 0.479894 0.225858
171 1 0.553575 0.404995 0.137634
172 1 0.54308 0.476457 0.187999
173 1 0.580093 0.512623 0.25001
174 1 0.590292 0.446658 0.202854
175 1 0.57687 0.336195 0.0945278
176 1 0.565466 0.385085 0.132274
177 1 0.601791 0.488858 0.23413
178 1 0.61234 0.421164 0.199995
179 1 0.599791 0.298242 0.0868871
180 1 0.588489 0.342692 0.111358
181 1 0.623643 0.469416 0.223488
182 1 0.634263 0.402409 0.19274
183 1 0.622279 0.254046 0.0995026
184 1 0.611003 0.303494 0.114773
185 1 0.645656 0.461345 0.225332
186 1 0.656395 0.396771 0.189693
187 1 0.64468 0.242737 0.0965513
188 1 0.633291 0.285543 0.114224
189 1 0.667435 0.448923 0.224973
190 1 0.677458 0.387506 0.199176
191 1 0.666409 0.228847 0.103687
192 1 0.655793 0.271078 0.117492
193 1 0.688443 0.444933 0.215443
194 1 0.699767 0.37821 0.192212
195 1 0.687983 0.206828 0.124293
196 1 0.67722 0.253755 0.137664
197 1 0.710375 0.446498 0.217092
198 1 0.721265 0.384448 0.201047
199 1 0.71028 0.201427 0.121239
200 1 0.699226 0.233972 0.138678
201 1 0.733044 0.438246 0.236775
202 1 0.743644 0.372026 0.209875
203 1 0.732106 0.2028 0.131786
204 1 0.721062 0.239564 0.144602
205 1 0.754541 0.436209 0.23863
206 1 0.764948 0.36887 0.219453
207 1 0.753936 0.191531 0.147492
208 1 0.742955 0.234324 0.156259
209 1 0.775857 0.43155 0.231868
210 1 0.787005 0.369709 0.208837
211 1 0.776141 0.197936 0.140525
212 1 0.764971 0.230908 0.160121
213 1 0.797928 0.435702 0.221656
214 1 0.808645 0.368745 0.201148
215 1 0.797245 0.187824 0.154473
216 1 0.786676 0.232342 0.160338
217 1 0.819422 0.433126 0.218645
218 1 0.830293 0.363208 0.202267
219 1 0.819187 0.177673 0.173454
220 1 0.808149 0.222735 0.169358
221 1 0.8407 0.431751 0.220818
222 1 0.851561 0.365026 0.205691
223 1 0.841656 0.171239 0.172959
224 1 0.830407 0.213122 0.178069
225 1 0.862333 0.432053 0.222212
226 1 0.873463 0.36633 0.208106
227 1 0.862801 0.177643 0.183099
228 1 0.852116 0.220014 0.184003
229 1 0.884354 0.428123 0.223265
230 1 0.895042 0.35925 0.22242
231 1 0.884458 0.17054 0.183935
232 1 0.873862 0.216599 0.192245
233 1 0.905885 0.428521 0.236867
234 1 0.916742 0.361232 0.236976
235 1 0.905991 0.175657 0.193023
236 1 0.895065 0.213585 0.195433
237 1 0.927409 0.43193 0.244244
238 1 0.938045 0.358767 0.237348
239 1 0.927509 0.172557 0.210859
240 1 0.916744 0.216524 0.207594
241 1 0.948763 0.434243 0.249758
242 1 0.959397 0.364409 0.247508
243 1 0.948733 0.167669 0.239226
244 1 0.938089 0.210046 0.228762
245 1 0.969828 0.432189 0.250707
246 1 0.980213 0.361473 0.251675
247 1 0.97005 0.17403 0.247132
248 1 0.959573 0.216152 0.243972
249 1 0.0300507 0.823568 0.244298
250 1 0.0404648 0.780176 0.238249
251 1 0.0301536 0.565662 0.248757
252 1 0.0198524 0.637113 0.250927
253 1 0.0511353 0.815573 0.234904
254 1 0.0618419 0.774179 0.234643
255 1 0.0515233 0.559778 0.251094
256 1 0.0406527 0.632258 0.243773
257 1 0.072448 0.80964 0.225
258 1 0.0830146 0.774507 0.226024
259 1 0.0730353 0.555533 0.242736
260 1 0.0624399 0.620793 0.242933
261 1 0.0935526 0.824345 0.218771
262 1 0.104373 0.781352 0.21046
263 1 0.0943142 0.557705 0.235716
264 1 0.0835476 0.626302 0.236138
265 1 0.11565 0.826596 0.202047
266 1 0.12659 0.785803 0.205095
267 1 0.115503 0.566652 0.23541
268 1 0.105036 0.632544 0.223193
269 1 0.136977 0.826383 0.208507
270 1 0.147673 0.785267 0.216569
271 1 0.137295 0.565965 0.242117
272 1 0.126522 0.636653 0.225317
273 1 0.158915 0.824449 0.207456
274 1 0.169759 0.778933 0.21111
275 1 0.158667 0.565093 0.252164
276 1 0.148016 0.634399 0.235085
277 1 0.180441 0.815901 0.194379
278 1 0.191442 0.767674 0.191417
279 1 0.180563 0.55707 0.234832
280 1 0.169687 0.627883 0.23559
281 1 0.202051 0.806323 0.178618
282 1 0.212718 0.762022 0.180504
283 1 0.201479 0.54811 0.234298
284 1 0.191151 0.622781 0.22098
285 1 0.223164 0.806077 0.168163
286 1 0.234148 0.762949 0.183634
287 1 0.222849 0.553055 0.23559
288 1 0.211928 0.614224 0.213882
289 1 0.245009 0.799591 0.159878
290 1 0.255751 0.754117 0.16863
291 1 0.244953 0.548695 0.227341
292 1 0.233631 0.617139 0.217433
293 1 0.266738 0.801044 0.157045
294 1 0.277526 0.756985 0.168685
295 1 0.26668 0.548091 0.224672
296 1 0.255918 0.612258 0.207899
297 1 0.288279 0.804035 0.158761
298 1 0.298704 0.762923 0.172552
299 1 0.287484 0.549418 0.238088
300 1 0.277202 0.617419 0.205609
301 1 0.309724 0.794892 0.145112
302 1 0.320837 0.744738 0.161741
303 1 0.309455 0.552406 0.242082
304 1 0.298264 0.62533 0.223902
305 1 0.331584 0.774072 0.136083
306 1 0.342443 0.73306 0.157637
307 1 0.330915 0.541848 0.246568
308 1 0.320126 0.613402 0.223296
309 1 0.353019 0.765648 0.138618
310 1 0.363469 0.731761 0.158255
311 1 0.352328 0.539951 0.254055
312 1 0.34177 0.594746 0.216998
313 1 0.374483 0.767488 0.131767
314 1 0.385255 0.72092 0.143527
315 1 0.373517 0.5402 0.249126
316 1 0.362648 0.600975 0.225806
317 1 0.396653 0.746971 0.12575
318 1 0.407362 0.702717 0.143797
319 1 0.394867 0.5363 0.257017
320 1 0.384549 0.592755 0.217412
321 1 0.418605 0.732638 0.12907
322 1 0.429481 0.699847 0.149633
323 1 0.416586 0.524667 0.264928
324 1 0.405734 0.582988 0.220237
325 1 0.441081 0.709079 0.130871
326 1 0.451775 0.664195 0.146714
327 1 0.438656 0.503698 0.257642
328 1 0.428022 0.574958 0.229313
329 1 0.463584 0.680014 0.134963
330 1 0.474775 0.635256 0.169849
331 1 0.460401 0.489032 0.273003
332 1 0.450042 0.547028 0.225973
333 1 0.48707 0.613153 0.179432
334 1 0.498529 0.524153 0.191763
335 1 0.48218 0.453542 0.304615
336 1 0.47302 0.521429 0.256327
337 1 0.510662 0.461393 0.202911
338 1 0.5213 0.401863 0.271187
339 1 0.502511 0.420068 0.375297
340 1 0.493546 0.458377 0.289291
341 1 0.532114 0.374214 0.303982
342 1 0.541362 0.384219 0.391582
343 1 0.522327 0.406101 0.487821
344 1 0.514963 0.419383 0.381265
345 1 0.552221 0.415273 0.427826
346 1 0.558201 0.475046 0.523261
347 1 0.539723 0.463316 0.611057
348 1 0.534297 0.417725 0.496158
349 1 0.567736 0.574832 0.556576
350 1 0.570312 0.691824 0.622795
351 1 0.553528 0.615645 0.717606
352 1 0.550741 0.511039 0.616896
353 1 0.575205 0.839155 0.620719
354 1 0.572377 0.977941 0.576636
355 1 0.558936 0.867832 0.729158
356 1 0.561557 0.724828 0.708673
357 1 0.570708 1.0129 0.449534
358 1 0.563641 0.981033 0.357695
359 1 0.551803 0.992014 0.543149
360 1 0.561319 0.967127 0.630354
361 1 0.562809 0.901321 0.253183
362 1 0.555526 0.829289 0.186864
363 1 0.543856 0.931495 0.34228
364 1 0.552746 0.979363 0.412679
365 1 0.554442 0.724659 0.106252
366 1 0.547393 0.647011 0.0425073
367 1 0.535709 0.79554 0.157355
368 1 0.544786 0.853802 0.232672
369 1 0.545607 0.515501 0.00578264
370 1 0.539249 0.407871 0.0169663
371 1 0.527397 0.60545 0.0111833
372 1 0.536471 0.687582 0.0571305
373 1 0.538938 0.301306 0.0943675
374 1 0.531682 0.228567 0.166786
375 1 0.519451 0.366006 0.0405322
376 1 0.528336 0.455379 0.00624607
377 1 0.531486 0.164637 0.275709
378 1 0.524573 0.127112 0.366006
379 1 0.512355 0.197053 0.207203
380 1 0.520749 0.255037 0.127794
381 1 0.525328 0.10244 0.48554
382 1 0.518931 0.0701816 0.584042
383 1 0.505703 0.0981618 0.417778
384 1 0.513832 0.141271 0.325661
385 1 0.51821 0.0809199 0.709266
386 1 0.511953 0.0884638 0.809043
387 1 0.499178 0.0334707 0.630819
388 1 0.507861 0.0615283 0.542547
389 1 0.51198 0.166102 0.91597
390 1 0.506301 0.269202 0.964296
391 1 0.492277 0.156638 0.820428
392 1 0.501052 0.0684954 0.761109
393 1 0.508857 0.40068 0.981803
394 1 0.50986 0.529465 0.936721
395 1 0.495472 0.408635 0.827087
396 1 0.496359 0.271023 0.892132
397 1 0.51743 0.618535 0.907515
398 1 0.522804 0.677421 0.812929
399 1 0.507359 0.571862 0.716531
400 1 0.503443 0.510385 0.830997
401 1 0.531848 0.73415 0.768554
402 1 0.538051 0.751397 0.676009
403 1 0.523683 0.622945 0.591873
404 1 0.517885 0.624817 0.702416
405 1 0.546756 0.798943 0.618302
406 1 0.554511 0.782039 0.538106
407 1 0.541998 0.627621 0.488406
408 1 0.534356 0.663574 0.583057
409 1 0.563499 0.830309 0.489891
410 1 0.573551 0.806986 0.436723
411 1 0.561428 0.633327 0.387707
412 1 0.553011 0.666444 0.47144
413 1 0.583821 0.850001 0.443994
414 1 0.59392 0.812791 0.410364
415 1 0.581848 0.627648 0.324818
416 1 0.572246 0.682975 0.378471
417 1 0.605037 0.843405 0.416977
418 1 0.615117 0.798238 0.382276
419 1 0.60278 0.616468 0.302211
420 1 0.592436 0.68474 0.342494
421 1 0.62611 0.832594 0.397419
422 1 0.636489 0.785658 0.37539
423 1 0.624153 0.595915 0.287328
424 1 0.613633 0.658974 0.324773
425 1 0.647173 0.823619 0.381468
426 1 0.657879 0.779746 0.358127
427 1 0.646226 0.588584 0.28634
428 1 0.635453 0.649801 0.315573
429 1 0.668366 0.814607 0.367199
430 1 0.679153 0.778946 0.350271
431 1 0.667613 0.581141 0.276835
432 1 0.656829 0.64773 0.308586
433 1 0.689973 0.818022 0.362778
434 1 0.700602 0.780543 0.349737
435 1 0.688967 0.581676 0.271464
436 1 0.678546 0.647423 0.297254
437 1 0.711331 0.820501 0.359831
438 1 0.722181 0.782743 0.348943
439 1 0.710729 0.57502 0.280679
440 1 0.700017 0.642199 0.298765
441 1 0.733112 0.821362 0.359879
442 1 0.743904 0.788227 0.34159
443 1 0.732948 0.575651 0.284849
444 1 0.72226 0.639444 0.300941
445 1 0.755084 0.826635 0.347366
446 1 0.765558 0.780215 0.323674
447 1 0.754109 0.573569 0.280548
448 1 0.743245 0.640436 0.300066
449 1 0.776066 0.815698 0.330762
450 1 0.786808 0.781468 0.319665
451 1 0.776169 0.577028 0.261948
452 1 0.765196 0.640165 0.286425
453 1 0.797571 0.827633 0.326271
454 1 0.808655 0.787471 0.310347
455 1 0.797756 0.57444 0.262257
456 1 0.78691 0.638366 0.2807
457 1 0.81912 0.829069 0.330477
458 1 0.829456 0.790089 0.319483
459 1 0.819275 0.573499 0.260616
460 1 0.808494 0.642163 0.27727
461 1 0.840803 0.82847 0.32325
462 1 0.851628 0.787788 0.303007
463 1 0.840689 0.572333 0.254346
464 1 0.82992 0.642223 0.279718
465 1 0.86263 0.828176 0.303284
466 1 0.87335 0.79138 0.288952
467 1 0.861796 0.579863 0.257202
468 1 0.851042 0.644074 0.268409
469 1 0.884375 0.828338 0.294398
470 1 0.894954 0.78798 0.281027
471 1 0.883375 0.572783 0.244524
472 1 0.873166 0.645175 0.261735
473 1 0.905536 0.832143 0.28693
474 1 0.916337 0.790053 0.271206
475 1 0.905554 0.57391 0.245249
476 1 0.894791 0.642615 0.252551
477 1 0.927126 0.829241 0.270003
478 1 0.938131 0.793841 0.270837
479 1 0.927452 0.575088 0.260301
480 1 0.91616 0.641445 0.257881
481 1 0.948366 0.836127 0.269412
482 1 0.959397 0.79543 0.260269
483 1 0.948354 0.579098 0.254971
484 1 0.937803 0.645019 0.264058
485 1 0.969733 0.839761 0.2577
486 1 0.980065 0.798328 0.253131
487 1 0.969928 0.577724 0.252028
488 1 0.959517 0.648493 0.254572
489 1 0.990431 0.428668 0.250701
490 1 0.999974 0.35795 0.25062
491 1 0.990299 0.145024 0.250475
492 1 0.980711 0.215417 0.250606
493 1 0.990368 0.853279 0.250723
494 1 0.999964 0.78471 0.250739
495 1 0.990255 0.570034 0.250698
496 1 0.980712 0.642624 0.250785
