ITEM: TIMESTEP
60000
ITEM: NUMBER OF ATOMS
496
ITEM: BOX BOUNDS ss ss ss
-0.00904001 123.528
-0.106276 10.8286
0.584307 11.7132
ITEM: ATOMS id type xs ys zs
1 1 0.0101255 0.419714 0.22014
2 1 0.0199787 0.353283 0.220145
3 1 0.0100042 0.160657 0.220196
4 1 9.94822e-05 0.223491 0.220257
5 1 0.0100896 0.808647 0.220452
6 1 0.0199749 0.744065 0.220213
7 1 0.00995365 0.549059 0.22005
8 1 0.00010688 0.613629 0.21983
9 1 0.031125 0.411351 0.219858
10 1 0.0418655 0.346316 0.221756
11 1 0.03138 0.172094 0.226048
12 1 0.0206905 0.21108 0.2223
13 1 0.052732 0.411542 0.218519
14 1 0.0636296 0.35071 0.236354
15 1 0.0528351 0.168129 0.238258
16 1 0.0421286 0.211094 0.227884
17 1 0.0740759 0.41649 0.23088
18 1 0.0850769 0.355701 0.227685
19 1 0.0750774 0.176686 0.242688
20 1 0.0637993 0.209068 0.240599
21 1 0.0963551 0.414099 0.217797
22 1 0.107261 0.352494 0.229012
23 1 0.0960003 0.174985 0.236441
24 1 0.0858527 0.220332 0.237435
25 1 0.118009 0.415538 0.226581
26 1 0.128653 0.351868 0.241696
27 1 0.117714 0.177014 0.260493
28 1 0.107166 0.214977 0.236171
29 1 0.138942 0.419214 0.235834
30 1 0.149833 0.359559 0.257444
31 1 0.138915 0.187262 0.292835
32 1 0.128225 0.220674 0.271471
33 1 0.16067 0.418966 0.242817
34 1 0.171123 0.35782 0.26004
35 1 0.160335 0.188146 0.307763
36 1 0.149706 0.226345 0.294296
37 1 0.181995 0.413988 0.240339
38 1 0.192407 0.353568 0.257852
39 1 0.18149 0.187561 0.305533
40 1 0.17117 0.226469 0.292473
41 1 0.20336 0.414245 0.23904
42 1 0.214579 0.353098 0.258665
43 1 0.203238 0.187512 0.304787
44 1 0.192189 0.222793 0.297147
45 1 0.225279 0.417083 0.248371
46 1 0.235901 0.352081 0.258246
47 1 0.224329 0.178563 0.300279
48 1 0.214055 0.219887 0.287338
49 1 0.246927 0.411581 0.246375
50 1 0.257485 0.350677 0.266901
51 1 0.246093 0.183806 0.31879
52 1 0.235291 0.216844 0.296302
53 1 0.268295 0.408068 0.251441
54 1 0.279085 0.345708 0.267877
55 1 0.268158 0.187338 0.340037
56 1 0.257061 0.222602 0.311984
57 1 0.290181 0.404443 0.249173
58 1 0.300777 0.344914 0.272864
59 1 0.289476 0.183433 0.330101
60 1 0.278872 0.219639 0.320025
61 1 0.311774 0.40198 0.251824
62 1 0.322406 0.342682 0.279456
63 1 0.311518 0.184409 0.344408
64 1 0.300561 0.218739 0.319256
65 1 0.332955 0.400608 0.260805
66 1 0.343654 0.341635 0.293383
67 1 0.332225 0.184056 0.359011
68 1 0.321842 0.219824 0.32977
69 1 0.354818 0.38609 0.25829
70 1 0.36538 0.319787 0.284614
71 1 0.353887 0.168264 0.359014
72 1 0.343429 0.21375 0.344579
73 1 0.376168 0.37114 0.253187
74 1 0.387115 0.305842 0.282596
75 1 0.375455 0.155528 0.353455
76 1 0.365026 0.198058 0.3402
77 1 0.397812 0.355798 0.260499
78 1 0.408873 0.297722 0.308165
79 1 0.396222 0.136251 0.365552
80 1 0.386189 0.178798 0.336085
81 1 0.419589 0.354246 0.288582
82 1 0.429543 0.290064 0.330862
83 1 0.417158 0.138856 0.400908
84 1 0.406697 0.173363 0.364464
85 1 0.440815 0.328908 0.306304
86 1 0.450852 0.266045 0.35123
87 1 0.438429 0.131248 0.435323
88 1 0.428489 0.174166 0.39796
89 1 0.461925 0.311886 0.325874
90 1 0.471405 0.275943 0.387895
91 1 0.459852 0.136339 0.478679
92 1 0.449485 0.15558 0.429109
93 1 0.482821 0.320832 0.389476
94 1 0.491225 0.300206 0.481495
95 1 0.479353 0.17053 0.538402
96 1 0.470323 0.180459 0.472156
97 1 0.502117 0.341531 0.488741
98 1 0.508757 0.343401 0.595353
99 1 0.495995 0.233086 0.664798
100 1 0.488601 0.217621 0.575809
101 1 0.519645 0.391698 0.611691
102 1 0.52492 0.431251 0.722498
103 1 0.510632 0.338805 0.801428
104 1 0.504881 0.296358 0.704076
105 1 0.534975 0.499487 0.731489
106 1 0.538081 0.57219 0.830531
107 1 0.524638 0.472417 0.918178
108 1 0.519549 0.405628 0.831299
109 1 0.545601 0.678736 0.809861
110 1 0.54328 0.808627 0.857807
111 1 0.530631 0.692091 0.977054
112 1 0.53136 0.568181 0.938135
113 1 0.546963 0.912159 0.777931
114 1 0.537532 0.963362 0.704222
115 1 0.527085 0.900615 0.869921
116 1 0.533036 0.811718 0.931716
117 1 0.538434 0.978815 0.57475
118 1 0.529571 0.94828 0.491268
119 1 0.519236 0.953073 0.668592
120 1 0.527003 0.952448 0.761633
121 1 0.530817 0.905587 0.361734
122 1 0.52169 0.854876 0.285037
123 1 0.511448 0.9087 0.450968
124 1 0.518425 0.938723 0.545243
125 1 0.523445 0.787238 0.179087
126 1 0.514781 0.723679 0.111952
127 1 0.503187 0.820919 0.253974
128 1 0.511066 0.870338 0.330519
129 1 0.51679 0.612095 0.0321312
130 1 0.507859 0.521588 0.0129468
131 1 0.496597 0.679762 0.069678
132 1 0.502992 0.75734 0.141331
133 1 0.509253 0.382927 0.0326957
134 1 0.50109 0.311416 0.100454
135 1 0.489781 0.460067 0.0386005
136 1 0.496457 0.55918 0.0183006
137 1 0.503644 0.21792 0.197214
138 1 0.495623 0.153947 0.270587
139 1 0.483221 0.257403 0.150896
140 1 0.489224 0.341841 0.0897301
141 1 0.498289 0.0930416 0.381007
142 1 0.490405 0.030464 0.463852
143 1 0.478238 0.077886 0.315169
144 1 0.484307 0.160032 0.238037
145 1 0.491567 0.0315976 0.604226
146 1 0.481309 0.0652671 0.69406
147 1 0.472217 -0.004056 0.522983
148 1 0.478637 0.0186943 0.421222
149 1 0.483476 0.169085 0.77532
150 1 0.479725 0.286419 0.733232
151 1 0.465649 0.174473 0.653716
152 1 0.469786 0.0486731 0.636686
153 1 0.486955 0.389465 0.732686
154 1 0.490744 0.456856 0.621803
155 1 0.474536 0.383901 0.552363
156 1 0.470554 0.295278 0.642799
157 1 0.501487 0.520211 0.610829
158 1 0.507678 0.54246 0.498015
159 1 0.490708 0.52338 0.41665
160 1 0.483585 0.469322 0.514259
161 1 0.519319 0.572664 0.487692
162 1 0.526966 0.569637 0.384916
163 1 0.511332 0.594411 0.30358
164 1 0.502405 0.565087 0.384179
165 1 0.539017 0.578048 0.381924
166 1 0.54727 0.538437 0.293021
167 1 0.532765 0.53516 0.195105
168 1 0.522772 0.58332 0.261571
169 1 0.559386 0.551866 0.303391
170 1 0.568876 0.492497 0.239444
171 1 0.554466 0.415355 0.143682
172 1 0.544009 0.484198 0.183972
173 1 0.580355 0.528388 0.257057
174 1 0.590483 0.462233 0.218217
175 1 0.576732 0.349273 0.113428
176 1 0.566318 0.39928 0.151834
177 1 0.601668 0.507311 0.237956
178 1 0.612456 0.451119 0.19519
179 1 0.598957 0.306706 0.114137
180 1 0.588185 0.355149 0.138479
181 1 0.623911 0.503451 0.217198
182 1 0.634404 0.440956 0.186859
183 1 0.622154 0.289834 0.1116
184 1 0.611083 0.333664 0.129549
185 1 0.645464 0.490601 0.208965
186 1 0.655883 0.421221 0.174356
187 1 0.644083 0.274101 0.123187
188 1 0.633384 0.319975 0.129172
189 1 0.666869 0.473957 0.195561
190 1 0.677564 0.410746 0.17696
191 1 0.665958 0.25022 0.123531
192 1 0.655411 0.295739 0.132565
193 1 0.688548 0.463073 0.208387
194 1 0.699206 0.401034 0.189409
195 1 0.687575 0.238428 0.130723
196 1 0.676814 0.282301 0.135594
197 1 0.709857 0.45904 0.20672
198 1 0.720963 0.392882 0.184529
199 1 0.709108 0.23159 0.126993
200 1 0.698593 0.275508 0.139471
201 1 0.731881 0.440239 0.210038
202 1 0.742191 0.365392 0.205981
203 1 0.730707 0.215381 0.14046
204 1 0.719849 0.266507 0.140871
205 1 0.753348 0.4228 0.22673
206 1 0.764184 0.360965 0.201211
207 1 0.752377 0.195918 0.145198
208 1 0.741528 0.240284 0.164256
209 1 0.775474 0.42262 0.214393
210 1 0.786152 0.355372 0.204807
211 1 0.774486 0.184066 0.16439
212 1 0.763335 0.2308 0.164943
213 1 0.796737 0.422076 0.210711
214 1 0.807259 0.355192 0.194719
215 1 0.796566 0.185569 0.155599
216 1 0.785575 0.22432 0.173603
217 1 0.817936 0.420692 0.204498
218 1 0.829157 0.360835 0.18616
219 1 0.818091 0.18914 0.14604
220 1 0.807557 0.227538 0.159929
221 1 0.839689 0.418425 0.216199
222 1 0.850668 0.357328 0.206617
223 1 0.839746 0.184281 0.148025
224 1 0.828683 0.229582 0.156778
225 1 0.861641 0.423546 0.222778
226 1 0.872507 0.362007 0.21178
227 1 0.862155 0.195208 0.153107
228 1 0.850862 0.22931 0.169164
229 1 0.883196 0.431554 0.22535
230 1 0.894176 0.369485 0.222286
231 1 0.88384 0.187763 0.177136
232 1 0.872883 0.229186 0.175479
233 1 0.90526 0.430134 0.232086
234 1 0.915589 0.366678 0.222218
235 1 0.904896 0.190934 0.189523
236 1 0.894108 0.234753 0.193423
237 1 0.926934 0.428531 0.219777
238 1 0.937092 0.360193 0.210707
239 1 0.927031 0.190509 0.186141
240 1 0.915919 0.23066 0.19656
241 1 0.948082 0.422541 0.219704
242 1 0.958826 0.360364 0.216971
243 1 0.948503 0.188428 0.201497
244 1 0.937806 0.223569 0.196624
245 1 0.969587 0.422374 0.220189
246 1 0.980303 0.357678 0.221162
247 1 0.969817 0.186191 0.216593
248 1 0.959007 0.224728 0.213414
249 1 0.0310048 0.780437 0.213742
250 1 0.0417496 0.740739 0.207657
251 1 0.031111 0.544485 0.218227
252 1 0.0204827 0.609854 0.220409
253 1 0.052552 0.784862 0.19273
254 1 0.0633563 0.748053 0.197003
255 1 0.0531532 0.543592 0.210291
256 1 0.0419434 0.605413 0.213214
257 1 0.0741895 0.788043 0.189059
258 1 0.0851093 0.748885 0.181182
259 1 0.0741819 0.549066 0.21267
260 1 0.0637186 0.609545 0.205717
261 1 0.096041 0.782973 0.169232
262 1 0.106696 0.745494 0.169616
263 1 0.0960321 0.544434 0.195073
264 1 0.0847846 0.608667 0.192074
265 1 0.117565 0.784499 0.161342
266 1 0.128844 0.750245 0.171988
267 1 0.117417 0.547341 0.201084
268 1 0.10649 0.609769 0.184896
269 1 0.139754 0.785309 0.158778
270 1 0.150569 0.743908 0.158826
271 1 0.138723 0.545224 0.211644
272 1 0.128138 0.613169 0.19752
273 1 0.161164 0.779086 0.137098
274 1 0.171917 0.740582 0.156933
275 1 0.160857 0.547002 0.211246
276 1 0.150147 0.611212 0.197436
277 1 0.182807 0.775587 0.143423
278 1 0.193873 0.742749 0.152823
279 1 0.182185 0.546205 0.210337
280 1 0.171363 0.609254 0.190414
281 1 0.20467 0.782281 0.138541
282 1 0.214925 0.73333 0.147655
283 1 0.203833 0.5422 0.200273
284 1 0.193055 0.60859 0.194891
285 1 0.225938 0.771225 0.133469
286 1 0.236607 0.73044 0.138244
287 1 0.225778 0.54652 0.214933
288 1 0.214827 0.602861 0.186464
289 1 0.247451 0.766057 0.129147
290 1 0.258129 0.725162 0.139882
291 1 0.246924 0.538728 0.20732
292 1 0.236583 0.601801 0.190126
293 1 0.269266 0.761457 0.123687
294 1 0.28008 0.719141 0.135946
295 1 0.268449 0.53175 0.198518
296 1 0.258348 0.595459 0.186499
297 1 0.290752 0.751351 0.119789
298 1 0.30099 0.716941 0.135517
299 1 0.2902 0.526702 0.199839
300 1 0.279362 0.583414 0.170266
301 1 0.311978 0.757581 0.124286
302 1 0.323233 0.72071 0.136453
303 1 0.311762 0.528903 0.203625
304 1 0.301133 0.587038 0.178059
305 1 0.334349 0.748826 0.117064
306 1 0.345111 0.705806 0.12617
307 1 0.333646 0.525329 0.207552
308 1 0.322405 0.593725 0.188262
309 1 0.356371 0.735069 0.115171
310 1 0.367644 0.689403 0.12949
311 1 0.355643 0.51133 0.202287
312 1 0.344733 0.575148 0.175915
313 1 0.379064 0.714635 0.105566
314 1 0.389394 0.66219 0.111847
315 1 0.377344 0.485978 0.192481
316 1 0.366987 0.558851 0.173534
317 1 0.400762 0.695068 0.109932
318 1 0.411733 0.653863 0.130987
319 1 0.398815 0.472366 0.199447
320 1 0.388725 0.535201 0.166337
321 1 0.422892 0.671971 0.122259
322 1 0.434052 0.629817 0.145658
323 1 0.421183 0.465157 0.224934
324 1 0.410535 0.528569 0.184948
325 1 0.445374 0.655049 0.146001
326 1 0.455993 0.611683 0.168036
327 1 0.44235 0.442735 0.237965
328 1 0.432492 0.505389 0.200095
329 1 0.467939 0.628963 0.171274
330 1 0.478475 0.570101 0.186109
331 1 0.463902 0.414865 0.249284
332 1 0.453987 0.487601 0.21789
333 1 0.490802 0.559223 0.200977
334 1 0.50217 0.480928 0.188439
335 1 0.485482 0.391642 0.28968
336 1 0.476104 0.452684 0.237145
337 1 0.514134 0.426832 0.208361
338 1 0.524229 0.391401 0.281507
339 1 0.506812 0.372662 0.381642
340 1 0.497766 0.404276 0.286979
341 1 0.536039 0.388659 0.321864
342 1 0.544365 0.401269 0.421299
343 1 0.525487 0.395315 0.502536
344 1 0.518784 0.390651 0.39568
345 1 0.554773 0.452472 0.455133
346 1 0.560971 0.525161 0.544379
347 1 0.541696 0.492141 0.627515
348 1 0.536812 0.436896 0.519155
349 1 0.568627 0.626236 0.566438
350 1 0.571414 0.745487 0.625767
351 1 0.554336 0.657482 0.724345
352 1 0.552118 0.554094 0.63626
353 1 0.575047 0.866387 0.606273
354 1 0.571185 0.983563 0.557259
355 1 0.557984 0.892629 0.716415
356 1 0.561492 0.759219 0.700427
357 1 0.569691 1.00679 0.430017
358 1 0.562192 0.973649 0.339884
359 1 0.549456 0.98496 0.522876
360 1 0.559775 0.97378 0.608793
361 1 0.561776 0.896442 0.234626
362 1 0.554955 0.826144 0.167756
363 1 0.541629 0.916902 0.312458
364 1 0.550309 0.968178 0.390253
365 1 0.555264 0.729575 0.0811884
366 1 0.548576 0.636152 0.0278467
367 1 0.534597 0.766722 0.136143
368 1 0.543543 0.836211 0.203119
369 1 0.547473 0.511333 -0.000100257
370 1 0.541136 0.407358 0.0115524
371 1 0.527817 0.573135 0.0147037
372 1 0.536869 0.665471 0.0497594
373 1 0.541123 0.30524 0.0945806
374 1 0.534484 0.24337 0.171465
375 1 0.521029 0.355045 0.0501027
376 1 0.529306 0.441143 0.00865432
377 1 0.534654 0.195835 0.289295
378 1 0.528853 0.155289 0.388721
379 1 0.515077 0.203239 0.229267
380 1 0.523193 0.259345 0.145755
381 1 0.528496 0.13018 0.512071
382 1 0.521489 0.113936 0.610517
383 1 0.509179 0.100889 0.4302
384 1 0.517495 0.148472 0.348589
385 1 0.521286 0.135547 0.730603
386 1 0.514395 0.137697 0.830602
387 1 0.502352 0.0537329 0.65234
388 1 0.510718 0.0834495 0.561037
389 1 0.513728 0.20598 0.933642
390 1 0.507207 0.29727 0.987791
391 1 0.494116 0.166259 0.84156
392 1 0.50328 0.103548 0.780296
393 1 0.509778 0.422156 1.00224
394 1 0.508651 0.539325 0.940108
395 1 0.494592 0.399952 0.833544
396 1 0.497004 0.285773 0.901789
397 1 0.515419 0.63508 0.909869
398 1 0.521168 0.684802 0.808357
399 1 0.506907 0.547533 0.718902
400 1 0.502081 0.503585 0.833617
401 1 0.529889 0.746325 0.757646
402 1 0.536872 0.757031 0.667258
403 1 0.52367 0.611133 0.599126
404 1 0.517389 0.611244 0.708665
405 1 0.545727 0.810448 0.614939
406 1 0.553804 0.792885 0.535304
407 1 0.542279 0.629828 0.489037
408 1 0.53487 0.663231 0.579187
409 1 0.562882 0.837535 0.476781
410 1 0.572797 0.818176 0.424307
411 1 0.561804 0.645326 0.390002
412 1 0.553096 0.680137 0.469572
413 1 0.58404 0.85548 0.425639
414 1 0.594388 0.813407 0.392476
415 1 0.582041 0.641506 0.32245
416 1 0.572856 0.699106 0.371725
417 1 0.605442 0.838942 0.403304
418 1 0.615907 0.801843 0.373921
419 1 0.603517 0.626265 0.298999
420 1 0.593186 0.691317 0.336466
421 1 0.626667 0.837644 0.385384
422 1 0.637125 0.792696 0.358974
423 1 0.625168 0.617979 0.283475
424 1 0.614571 0.679923 0.316992
425 1 0.648042 0.822914 0.366176
426 1 0.658527 0.781704 0.346327
427 1 0.646397 0.608532 0.273196
428 1 0.635868 0.669849 0.308153
429 1 0.669264 0.820606 0.344638
430 1 0.679379 0.782357 0.318147
431 1 0.668055 0.594637 0.250359
432 1 0.657512 0.659738 0.292109
433 1 0.690359 0.821199 0.328644
434 1 0.700772 0.772665 0.321921
435 1 0.689639 0.586968 0.256606
436 1 0.679104 0.649716 0.275901
437 1 0.711801 0.805727 0.334326
438 1 0.722367 0.764352 0.321549
439 1 0.710668 0.579111 0.259617
440 1 0.700408 0.644375 0.280563
441 1 0.733349 0.795737 0.329796
442 1 0.743939 0.750713 0.312364
443 1 0.732821 0.568326 0.25284
444 1 0.722103 0.632472 0.276463
445 1 0.754653 0.791006 0.314069
446 1 0.765328 0.748248 0.299726
447 1 0.754231 0.555742 0.259593
448 1 0.74367 0.620309 0.278152
449 1 0.775853 0.778445 0.299039
450 1 0.786477 0.737165 0.287568
451 1 0.775474 0.55326 0.243996
452 1 0.765028 0.61236 0.270931
453 1 0.796836 0.782851 0.292798
454 1 0.807574 0.741445 0.282202
455 1 0.796906 0.546467 0.23633
456 1 0.786359 0.61056 0.25339
457 1 0.818253 0.786034 0.283029
458 1 0.829082 0.747678 0.272904
459 1 0.818138 0.549671 0.24363
460 1 0.807268 0.608543 0.258219
461 1 0.839267 0.792534 0.277717
462 1 0.849951 0.753966 0.262781
463 1 0.839208 0.549346 0.240725
464 1 0.828815 0.612239 0.252225
465 1 0.86093 0.794967 0.258327
466 1 0.871551 0.753194 0.248221
467 1 0.861465 0.554727 0.244263
468 1 0.85033 0.620035 0.244046
469 1 0.882371 0.796004 0.244391
470 1 0.893371 0.760736 0.240938
471 1 0.88302 0.558087 0.244048
472 1 0.871989 0.618663 0.245906
473 1 0.904383 0.804228 0.236176
474 1 0.915739 0.765539 0.232997
475 1 0.904805 0.564282 0.243223
476 1 0.894009 0.625328 0.247609
477 1 0.92669 0.804471 0.227327
478 1 0.937019 0.755901 0.232679
479 1 0.926468 0.561589 0.235642
480 1 0.915656 0.628045 0.234929
481 1 0.947998 0.793893 0.228835
482 1 0.958826 0.754694 0.229806
483 1 0.948121 0.559465 0.227247
484 1 0.9373 0.62353 0.239034
485 1 0.96949 0.795251 0.227222
486 1 0.98015 0.757346 0.222627
487 1 0.969691 0.55552 0.221517
488 1 0.958949 0.620265 0.224077
489 1 0.990844 0.419153 0.220183
490 1 1.00069 0.354455 0.220101
491 1 0.990708 0.159655 0.219955
492 1 0.980816 0.224056 0.220087
493 1 0.99078 0.807619 0.220205
494 1 1.00068 0.744886 0.220221
495 1 0.990663 0.548485 0.22018
496 1 0.980817 0.614896 0.220267
