ITEM: TIMESTEP
500000
ITEM: NUMBER OF ATOMS
496
ITEM: BOX BOUNDS ss ss ss
-0.00904001 122.888
-0.225459 10.685
0.386358 11.8094
ITEM: ATOMS id type xs ys zs
1 1 0.0101782 0.431578 0.2318
2 1 0.0200827 0.364998 0.231804
3 1 0.0100562 0.171941 0.231854
4 1 0.0001 0.234915 0.231914
5 1 0.0101421 0.821382 0.232104
6 1 0.0200789 0.756656 0.231871
7 1 0.0100055 0.561212 0.231713
8 1 0.000107436 0.625927 0.231499
9 1 0.031287 0.423196 0.231525
10 1 0.0420834 0.358015 0.233374
11 1 0.0315433 0.183403 0.237556
12 1 0.0207982 0.222476 0.233904
13 1 0.0524877 0.421914 0.232782
14 1 0.0641608 0.357227 0.238684
15 1 0.0532796 0.182137 0.243913
16 1 0.0423478 0.22249 0.239345
17 1 0.0747854 0.422329 0.229599
18 1 0.0859162 0.35658 0.235684
19 1 0.0748425 0.180817 0.253625
20 1 0.0639231 0.220441 0.246693
21 1 0.0969002 0.420993 0.225312
22 1 0.107971 0.35625 0.230951
23 1 0.0966177 0.178882 0.252465
24 1 0.0857525 0.222508 0.248215
25 1 0.118445 0.422607 0.220849
26 1 0.128988 0.357005 0.230712
27 1 0.117985 0.186449 0.256428
28 1 0.107184 0.22384 0.246966
29 1 0.139774 0.420958 0.227421
30 1 0.150944 0.357594 0.246926
31 1 0.13962 0.18723 0.277475
32 1 0.128867 0.227225 0.255754
33 1 0.161722 0.419945 0.245618
34 1 0.172256 0.360308 0.260905
35 1 0.161008 0.189355 0.287216
36 1 0.150316 0.22658 0.27236
37 1 0.183 0.417489 0.249011
38 1 0.193603 0.360523 0.266248
39 1 0.182371 0.186631 0.303791
40 1 0.171847 0.227686 0.290473
41 1 0.204286 0.411806 0.250351
42 1 0.215196 0.348673 0.276481
43 1 0.203947 0.186735 0.312614
44 1 0.193139 0.221651 0.298467
45 1 0.226172 0.40881 0.262739
46 1 0.237046 0.350297 0.283193
47 1 0.225965 0.185218 0.340527
48 1 0.21499 0.220792 0.316625
49 1 0.247914 0.411675 0.27051
50 1 0.258467 0.353054 0.289038
51 1 0.247682 0.187365 0.352774
52 1 0.236967 0.223491 0.333624
53 1 0.269359 0.404293 0.266553
54 1 0.279692 0.340531 0.29515
55 1 0.268781 0.179077 0.353078
56 1 0.258249 0.22208 0.334784
57 1 0.290238 0.402473 0.274546
58 1 0.301082 0.345831 0.301356
59 1 0.290357 0.185677 0.362823
60 1 0.279145 0.218439 0.346294
61 1 0.312385 0.3969 0.271808
62 1 0.322776 0.334683 0.295814
63 1 0.311929 0.176979 0.363981
64 1 0.30131 0.218574 0.35349
65 1 0.333792 0.392252 0.272741
66 1 0.344933 0.327127 0.294237
67 1 0.333286 0.168976 0.369605
68 1 0.322654 0.208422 0.347032
69 1 0.355975 0.381608 0.276188
70 1 0.366464 0.319862 0.309928
71 1 0.354394 0.168871 0.383179
72 1 0.344204 0.20495 0.357448
73 1 0.377212 0.368931 0.285645
74 1 0.387419 0.304417 0.310657
75 1 0.375392 0.153004 0.397112
76 1 0.365225 0.197677 0.369209
77 1 0.398277 0.353339 0.291424
78 1 0.408637 0.293939 0.333721
79 1 0.39647 0.149075 0.408534
80 1 0.386059 0.18161 0.37902
81 1 0.420034 0.346167 0.313478
82 1 0.429802 0.284564 0.347667
83 1 0.417725 0.142413 0.439129
84 1 0.407387 0.179805 0.402643
85 1 0.441164 0.321426 0.327836
86 1 0.450641 0.267188 0.378918
87 1 0.438342 0.139351 0.467382
88 1 0.428504 0.175227 0.426531
89 1 0.461917 0.312682 0.354743
90 1 0.471428 0.273715 0.415775
91 1 0.459399 0.148574 0.515235
92 1 0.449326 0.170741 0.46669
93 1 0.482868 0.304598 0.411546
94 1 0.491266 0.281966 0.501662
95 1 0.478553 0.174372 0.570007
96 1 0.46957 0.190617 0.507241
97 1 0.502514 0.322605 0.514256
98 1 0.509166 0.331643 0.618557
99 1 0.495226 0.241646 0.691944
100 1 0.488161 0.224347 0.607249
101 1 0.520537 0.367475 0.627359
102 1 0.526019 0.401935 0.733556
103 1 0.511214 0.337171 0.814066
104 1 0.504901 0.293701 0.728541
105 1 0.536041 0.480862 0.739334
106 1 0.538858 0.563608 0.83043
107 1 0.525004 0.468246 0.928932
108 1 0.520609 0.389685 0.850721
109 1 0.546253 0.67135 0.808481
110 1 0.543879 0.802041 0.84934
111 1 0.531841 0.690446 0.973179
112 1 0.531996 0.56846 0.934289
113 1 0.547006 0.902108 0.769636
114 1 0.537204 0.955433 0.706675
115 1 0.527462 0.892709 0.871599
116 1 0.534192 0.809936 0.927279
117 1 0.538611 0.971348 0.574394
118 1 0.52896 0.936502 0.49891
119 1 0.519058 0.93352 0.667374
120 1 0.526334 0.94527 0.762564
121 1 0.529962 0.885158 0.378617
122 1 0.520649 0.825724 0.316306
123 1 0.510116 0.883835 0.463849
124 1 0.517394 0.924887 0.54644
125 1 0.521934 0.760987 0.202129
126 1 0.513228 0.693046 0.142173
127 1 0.501928 0.791906 0.267483
128 1 0.509167 0.834878 0.347615
129 1 0.51479 0.583669 0.0702303
130 1 0.506054 0.498785 0.0378721
131 1 0.49474 0.657703 0.0854412
132 1 0.501085 0.727812 0.162211
133 1 0.508431 0.364006 0.0578163
134 1 0.499664 0.28509 0.110126
135 1 0.487802 0.432158 0.0439597
136 1 0.494216 0.537213 0.0311113
137 1 0.50234 0.198997 0.211755
138 1 0.494319 0.144264 0.297344
139 1 0.481811 0.239738 0.172163
140 1 0.487746 0.312963 0.0949459
141 1 0.496911 0.0903525 0.412251
142 1 0.489002 0.0389809 0.498188
143 1 0.4771 0.0817411 0.346173
144 1 0.482938 0.158374 0.264535
145 1 0.490442 0.0355162 0.631724
146 1 0.481185 0.0642678 0.718824
147 1 0.470547 0.00454715 0.555914
148 1 0.477537 0.0214698 0.457429
149 1 0.483359 0.164967 0.806678
150 1 0.479536 0.291243 0.766007
151 1 0.465466 0.179784 0.687891
152 1 0.468951 0.0565202 0.672863
153 1 0.487119 0.395302 0.759748
154 1 0.490077 0.455914 0.647924
155 1 0.474 0.382094 0.591053
156 1 0.470299 0.299659 0.680099
157 1 0.501344 0.512448 0.629944
158 1 0.506845 0.528977 0.520532
159 1 0.49001 0.502503 0.441961
160 1 0.483018 0.459539 0.539248
161 1 0.518952 0.550717 0.513437
162 1 0.526005 0.551684 0.406628
163 1 0.510074 0.573468 0.319824
164 1 0.501287 0.535136 0.409572
165 1 0.538206 0.55789 0.3987
166 1 0.546294 0.527396 0.311312
167 1 0.531307 0.527489 0.219653
168 1 0.521563 0.568144 0.289232
169 1 0.55867 0.537643 0.315445
170 1 0.568544 0.479584 0.260451
171 1 0.553467 0.415905 0.162407
172 1 0.54291 0.473582 0.200327
173 1 0.579942 0.519129 0.279554
174 1 0.589939 0.460938 0.230157
175 1 0.575269 0.344812 0.136364
176 1 0.564881 0.39381 0.168857
177 1 0.601056 0.507113 0.252724
178 1 0.611345 0.448871 0.216379
179 1 0.598386 0.312841 0.131538
180 1 0.586583 0.354648 0.154943
181 1 0.622474 0.491232 0.245226
182 1 0.632757 0.434059 0.200524
183 1 0.620879 0.290645 0.121842
184 1 0.610049 0.330042 0.150579
185 1 0.643764 0.486917 0.227282
186 1 0.654782 0.423899 0.206153
187 1 0.643304 0.274844 0.12132
188 1 0.631963 0.314589 0.134875
189 1 0.665979 0.477989 0.232404
190 1 0.676534 0.415048 0.202687
191 1 0.66502 0.262329 0.12771
192 1 0.654066 0.301054 0.147987
193 1 0.687421 0.470362 0.229286
194 1 0.698168 0.408358 0.202739
195 1 0.687032 0.249406 0.131519
196 1 0.676473 0.292369 0.145577
197 1 0.709058 0.46756 0.222107
198 1 0.719415 0.401288 0.204268
199 1 0.708699 0.235814 0.142709
200 1 0.698066 0.281472 0.156521
201 1 0.730769 0.45447 0.230979
202 1 0.741183 0.392852 0.205566
203 1 0.730256 0.231325 0.149133
204 1 0.719664 0.272257 0.160239
205 1 0.752014 0.448147 0.221965
206 1 0.762224 0.382033 0.196599
207 1 0.752009 0.214973 0.161378
208 1 0.741315 0.263697 0.165814
209 1 0.773228 0.444573 0.207489
210 1 0.784776 0.383369 0.190648
211 1 0.773397 0.213549 0.157764
212 1 0.762679 0.254224 0.16674
213 1 0.795328 0.442169 0.199494
214 1 0.806113 0.380548 0.190433
215 1 0.795113 0.209971 0.160516
216 1 0.784126 0.248171 0.162653
217 1 0.8168 0.440857 0.208551
218 1 0.827406 0.375377 0.192159
219 1 0.816923 0.199163 0.159241
220 1 0.806151 0.242714 0.168261
221 1 0.838694 0.436842 0.211933
222 1 0.849634 0.370798 0.20084
223 1 0.838723 0.20079 0.152549
224 1 0.827586 0.237809 0.166446
225 1 0.860855 0.437445 0.205534
226 1 0.87128 0.373472 0.19062
227 1 0.860685 0.198864 0.171527
228 1 0.849683 0.240163 0.175394
229 1 0.882203 0.434657 0.205127
230 1 0.892976 0.375205 0.191201
231 1 0.881937 0.196464 0.159518
232 1 0.871339 0.237023 0.168909
233 1 0.904102 0.432674 0.212355
234 1 0.914472 0.367938 0.209946
235 1 0.903643 0.197998 0.174984
236 1 0.892561 0.239111 0.170787
237 1 0.925505 0.429523 0.218603
238 1 0.936389 0.366415 0.216179
239 1 0.925595 0.186461 0.201565
240 1 0.914573 0.233244 0.193553
241 1 0.947155 0.429774 0.220772
242 1 0.957817 0.372095 0.228713
243 1 0.947285 0.191329 0.21784
244 1 0.936285 0.226364 0.208174
245 1 0.968635 0.434244 0.231847
246 1 0.979406 0.369403 0.232796
247 1 0.968866 0.197532 0.228344
248 1 0.957999 0.236155 0.225248
249 1 0.0311662 0.793108 0.225567
250 1 0.0419669 0.753322 0.219639
251 1 0.031273 0.556628 0.229936
252 1 0.0205893 0.622143 0.232063
253 1 0.0528606 0.793938 0.206887
254 1 0.0637186 0.750275 0.20466
255 1 0.0534462 0.551172 0.22313
256 1 0.0421617 0.617692 0.225052
257 1 0.0745105 0.790293 0.199499
258 1 0.0854768 0.751241 0.194173
259 1 0.0751537 0.556786 0.213598
260 1 0.0644421 0.61873 0.214991
261 1 0.0962968 0.797034 0.198192
262 1 0.107063 0.758519 0.198622
263 1 0.0964352 0.552249 0.211663
264 1 0.085988 0.615183 0.203903
265 1 0.117931 0.794394 0.187634
266 1 0.128734 0.749721 0.193577
267 1 0.118142 0.55758 0.209954
268 1 0.106962 0.620778 0.205134
269 1 0.139366 0.787619 0.187425
270 1 0.150265 0.746061 0.198689
271 1 0.139294 0.553743 0.21457
272 1 0.128741 0.619116 0.203976
273 1 0.161333 0.786214 0.188278
274 1 0.172197 0.744268 0.190965
275 1 0.161057 0.549538 0.222615
276 1 0.150473 0.611857 0.215492
277 1 0.183001 0.788837 0.17978
278 1 0.193521 0.744465 0.176937
279 1 0.182677 0.550836 0.228076
280 1 0.172045 0.608858 0.209066
281 1 0.204553 0.774942 0.157252
282 1 0.215196 0.731836 0.160401
283 1 0.204295 0.543514 0.218944
284 1 0.193521 0.610158 0.20911
285 1 0.226212 0.763048 0.148515
286 1 0.237189 0.730507 0.157297
287 1 0.226282 0.537803 0.218972
288 1 0.215488 0.600687 0.19984
289 1 0.248379 0.767182 0.147383
290 1 0.259141 0.724996 0.16445
291 1 0.247788 0.535651 0.22533
292 1 0.237519 0.599817 0.203171
293 1 0.270009 0.759409 0.150133
294 1 0.28095 0.72063 0.155746
295 1 0.269632 0.529316 0.213989
296 1 0.258613 0.593311 0.205692
297 1 0.292127 0.752455 0.14504
298 1 0.302662 0.7082 0.15393
299 1 0.291323 0.529414 0.223367
300 1 0.280619 0.591781 0.198349
301 1 0.314002 0.739842 0.136183
302 1 0.324741 0.703991 0.150488
303 1 0.313422 0.515686 0.219351
304 1 0.30246 0.582252 0.203115
305 1 0.335725 0.734136 0.133272
306 1 0.346597 0.695524 0.145889
307 1 0.334868 0.512324 0.222423
308 1 0.323938 0.572278 0.197634
309 1 0.357727 0.726126 0.132674
310 1 0.368587 0.679724 0.15288
311 1 0.356392 0.50652 0.229131
312 1 0.345796 0.568174 0.198543
313 1 0.379677 0.705516 0.127462
314 1 0.390557 0.661741 0.141954
315 1 0.378072 0.489827 0.232859
316 1 0.367649 0.558972 0.208826
317 1 0.401714 0.68339 0.121776
318 1 0.412559 0.641854 0.14425
319 1 0.399396 0.472553 0.23087
320 1 0.389219 0.536551 0.200708
321 1 0.423766 0.657463 0.12705
322 1 0.43437 0.61389 0.150175
323 1 0.421215 0.457799 0.241613
324 1 0.411035 0.519521 0.208354
325 1 0.44576 0.637219 0.133808
326 1 0.456986 0.589813 0.160515
327 1 0.443156 0.429758 0.24793
328 1 0.432956 0.496079 0.209287
329 1 0.468352 0.599813 0.168851
330 1 0.4796 0.547883 0.202072
331 1 0.464378 0.406262 0.271071
332 1 0.454592 0.468038 0.221994
333 1 0.491374 0.525018 0.213598
334 1 0.502596 0.440694 0.214359
335 1 0.48571 0.367046 0.308363
336 1 0.476117 0.432292 0.252819
337 1 0.51395 0.406311 0.228522
338 1 0.524042 0.375059 0.300314
339 1 0.506582 0.352359 0.405494
340 1 0.497901 0.373697 0.312134
341 1 0.535836 0.369751 0.337078
342 1 0.544404 0.382495 0.432273
343 1 0.526183 0.371226 0.517678
344 1 0.518635 0.353265 0.411938
345 1 0.554928 0.428462 0.467001
346 1 0.560121 0.51523 0.543146
347 1 0.542285 0.469381 0.636257
348 1 0.537667 0.405269 0.533299
349 1 0.56824 0.61582 0.560953
350 1 0.570739 0.733998 0.614826
351 1 0.553638 0.65546 0.711555
352 1 0.552253 0.548285 0.63621
353 1 0.574083 0.862002 0.594891
354 1 0.570255 0.978467 0.541545
355 1 0.557373 0.893115 0.701851
356 1 0.56106 0.760505 0.688345
357 1 0.56828 1.00183 0.420333
358 1 0.560648 0.959821 0.330067
359 1 0.549385 0.983004 0.519436
360 1 0.559106 0.974855 0.595541
361 1 0.559998 0.879523 0.234331
362 1 0.553414 0.79457 0.176866
363 1 0.540537 0.8847 0.328102
364 1 0.549567 0.950061 0.393645
365 1 0.552997 0.700867 0.0995394
366 1 0.546115 0.619824 0.0485065
367 1 0.532956 0.744473 0.162348
368 1 0.541917 0.806752 0.223403
369 1 0.545485 0.494357 0.0183259
370 1 0.539553 0.386416 0.0408827
371 1 0.526228 0.55289 0.0445828
372 1 0.534433 0.645413 0.0754493
373 1 0.54044 0.292764 0.122905
374 1 0.534143 0.222186 0.199606
375 1 0.519845 0.326717 0.070192
376 1 0.528007 0.418972 0.0345561
377 1 0.534322 0.174215 0.314302
378 1 0.52742 0.145249 0.406279
379 1 0.51398 0.193392 0.241326
380 1 0.52264 0.238753 0.163975
381 1 0.527501 0.130549 0.526115
382 1 0.520903 0.108336 0.623368
383 1 0.507695 0.105783 0.450519
384 1 0.516071 0.144658 0.367186
385 1 0.52059 0.123248 0.741786
386 1 0.514053 0.132094 0.838457
387 1 0.501239 0.0596406 0.671282
388 1 0.509823 0.0833536 0.576747
389 1 0.514074 0.198595 0.942655
390 1 0.508414 0.292187 0.99545
391 1 0.49411 0.173579 0.86444
392 1 0.502869 0.104956 0.799326
393 1 0.510035 0.419201 1.00637
394 1 0.509036 0.539257 0.958712
395 1 0.495427 0.399325 0.856031
396 1 0.497691 0.287312 0.91783
397 1 0.51589 0.631353 0.918688
398 1 0.521486 0.674289 0.815906
399 1 0.507106 0.540491 0.734229
400 1 0.502995 0.502517 0.852351
401 1 0.529577 0.738151 0.762124
402 1 0.536056 0.741924 0.668825
403 1 0.523826 0.586541 0.619051
404 1 0.517554 0.597532 0.72489
405 1 0.544869 0.797764 0.616235
406 1 0.55232 0.786004 0.52979
407 1 0.541958 0.612634 0.504022
408 1 0.534538 0.639789 0.597158
409 1 0.561351 0.832567 0.47095
410 1 0.57131 0.811191 0.420701
411 1 0.560712 0.636989 0.390555
412 1 0.552019 0.668418 0.472804
413 1 0.581858 0.85132 0.429687
414 1 0.592438 0.81247 0.407482
415 1 0.580911 0.630322 0.345109
416 1 0.571392 0.690408 0.37723
417 1 0.603549 0.838047 0.42636
418 1 0.613792 0.793314 0.402027
419 1 0.601993 0.61841 0.321912
420 1 0.59151 0.684134 0.359432
421 1 0.624877 0.821224 0.416916
422 1 0.635285 0.779655 0.393297
423 1 0.623586 0.609137 0.306122
424 1 0.612858 0.665574 0.344034
425 1 0.646147 0.811026 0.412339
426 1 0.656439 0.774841 0.382883
427 1 0.644799 0.600029 0.293969
428 1 0.634621 0.663159 0.329441
429 1 0.667068 0.815376 0.378986
430 1 0.677653 0.784374 0.349582
431 1 0.666693 0.598952 0.283602
432 1 0.65575 0.651708 0.319263
433 1 0.688214 0.815026 0.356314
434 1 0.699028 0.773642 0.34792
435 1 0.687968 0.591969 0.280397
436 1 0.677254 0.656162 0.298246
437 1 0.710143 0.812397 0.356063
438 1 0.721153 0.773166 0.335664
439 1 0.709019 0.582748 0.28065
440 1 0.698895 0.643963 0.309689
441 1 0.732059 0.813451 0.341864
442 1 0.74264 0.768212 0.328088
443 1 0.730618 0.577553 0.27568
444 1 0.720132 0.641202 0.302083
445 1 0.753135 0.803972 0.335845
446 1 0.764132 0.77036 0.320535
447 1 0.752261 0.57465 0.263046
448 1 0.741934 0.63821 0.290667
449 1 0.774913 0.80281 0.323346
450 1 0.785419 0.764992 0.299702
451 1 0.774007 0.572348 0.247391
452 1 0.763427 0.634783 0.275541
453 1 0.796286 0.798184 0.302736
454 1 0.806768 0.759828 0.286163
455 1 0.795538 0.567526 0.237877
456 1 0.784897 0.633813 0.259415
457 1 0.817807 0.799941 0.294059
458 1 0.828771 0.764038 0.27462
459 1 0.817345 0.568724 0.235603
460 1 0.806335 0.628647 0.251004
461 1 0.839412 0.805054 0.280619
462 1 0.850085 0.765061 0.273683
463 1 0.838978 0.568658 0.232508
464 1 0.82785 0.632368 0.247912
465 1 0.860815 0.80119 0.285874
466 1 0.871768 0.762849 0.273719
467 1 0.860581 0.569945 0.227434
468 1 0.849748 0.632968 0.243197
469 1 0.882374 0.798008 0.286246
470 1 0.893134 0.759928 0.275294
471 1 0.882431 0.567174 0.233042
472 1 0.871493 0.629112 0.242109
473 1 0.903966 0.795885 0.283342
474 1 0.91437 0.756242 0.283896
475 1 0.903892 0.560707 0.246662
476 1 0.893295 0.625504 0.2547
477 1 0.924998 0.803204 0.281111
478 1 0.936274 0.765487 0.25987
479 1 0.925701 0.565184 0.249064
480 1 0.915023 0.625121 0.262651
481 1 0.946864 0.812022 0.240551
482 1 0.957817 0.767308 0.241218
483 1 0.947241 0.565472 0.231825
484 1 0.936276 0.629088 0.249453
485 1 0.968537 0.807956 0.2387
486 1 0.979252 0.769966 0.234223
487 1 0.968739 0.567688 0.233142
488 1 0.957941 0.632578 0.235635
489 1 0.990002 0.431015 0.231842
490 1 0.9999 0.366173 0.231762
491 1 0.989865 0.170936 0.23162
492 1 0.979922 0.235481 0.231749
493 1 0.989937 0.820351 0.231863
494 1 0.99989 0.757478 0.231879
495 1 0.98982 0.560637 0.231839
496 1 0.979923 0.627197 0.231924
