ITEM: TIMESTEP
310000
ITEM: NUMBER OF ATOMS
496
ITEM: BOX BOUNDS ss ss ss
-0.00904001 126.6
0.312305 10.4296
0.317335 11.3798
ITEM: ATOMS id type xs ys zs
1 1 0.00987974 0.412261 0.245595
2 1 0.0194939 0.340461 0.2456
3 1 0.0097614 0.132268 0.245651
4 1 9.7068e-05 0.20018 0.245713
5 1 0.00984471 0.832626 0.245909
6 1 0.0194902 0.762825 0.245668
7 1 0.00971209 0.552059 0.245505
8 1 0.000104286 0.621847 0.245284
9 1 0.0303696 0.403222 0.245311
10 1 0.0408495 0.332931 0.247221
11 1 0.0306185 0.144629 0.251539
12 1 0.0201884 0.186766 0.247768
13 1 0.0520578 0.400299 0.248292
14 1 0.0629783 0.332908 0.253976
15 1 0.0519721 0.13688 0.251624
16 1 0.0411062 0.186781 0.253386
17 1 0.0734642 0.40326 0.251249
18 1 0.084103 0.337435 0.257792
19 1 0.0741886 0.141466 0.266475
20 1 0.0631677 0.181094 0.257113
21 1 0.094849 0.408481 0.253676
22 1 0.105395 0.343314 0.26882
23 1 0.0947316 0.15396 0.290549
24 1 0.0843252 0.193177 0.273653
25 1 0.116473 0.409576 0.2589
26 1 0.127148 0.344531 0.27901
27 1 0.11644 0.161006 0.30396
28 1 0.105368 0.196364 0.295056
29 1 0.138013 0.412976 0.268095
30 1 0.148098 0.344618 0.285067
31 1 0.137767 0.159442 0.32126
32 1 0.126692 0.198896 0.303761
33 1 0.159421 0.415118 0.269325
34 1 0.170313 0.347968 0.280636
35 1 0.159155 0.16026 0.329047
36 1 0.14822 0.1994 0.312186
37 1 0.181455 0.411281 0.273737
38 1 0.19198 0.339298 0.287639
39 1 0.180584 0.161505 0.322921
40 1 0.169812 0.206296 0.318211
41 1 0.202495 0.400107 0.264298
42 1 0.213415 0.340514 0.28816
43 1 0.202397 0.156986 0.334205
44 1 0.191436 0.199225 0.321472
45 1 0.224144 0.409098 0.261972
46 1 0.23483 0.340501 0.276146
47 1 0.224273 0.162508 0.343615
48 1 0.213322 0.196148 0.323642
49 1 0.24554 0.399596 0.260013
50 1 0.256497 0.340202 0.286832
51 1 0.245399 0.162312 0.346553
52 1 0.234726 0.205291 0.333059
53 1 0.267011 0.400551 0.261435
54 1 0.277914 0.339829 0.284603
55 1 0.267071 0.157631 0.354102
56 1 0.256242 0.194412 0.339409
57 1 0.288915 0.401799 0.262039
58 1 0.299933 0.337337 0.293032
59 1 0.289159 0.15906 0.356785
60 1 0.278172 0.206247 0.337211
61 1 0.31094 0.400368 0.270862
62 1 0.321134 0.333575 0.300832
63 1 0.310516 0.16502 0.368864
64 1 0.300038 0.202546 0.348384
65 1 0.332534 0.398989 0.274352
66 1 0.343064 0.346258 0.311051
67 1 0.332316 0.167698 0.376751
68 1 0.321299 0.203849 0.357872
69 1 0.354036 0.405111 0.282552
70 1 0.364494 0.345446 0.312954
71 1 0.353475 0.176473 0.388533
72 1 0.342802 0.206871 0.362847
73 1 0.375257 0.405363 0.286211
74 1 0.386302 0.336752 0.314903
75 1 0.373969 0.177894 0.396664
76 1 0.36355 0.220046 0.37474
77 1 0.39674 0.391985 0.289682
78 1 0.407306 0.328135 0.323944
79 1 0.395401 0.166691 0.399906
80 1 0.384867 0.203454 0.379492
81 1 0.418243 0.376125 0.302283
82 1 0.4289 0.320572 0.343799
83 1 0.416414 0.159015 0.425911
84 1 0.406144 0.200892 0.392062
85 1 0.43938 0.373094 0.318516
86 1 0.449853 0.315974 0.367563
87 1 0.437547 0.167429 0.467524
88 1 0.427151 0.201494 0.426905
89 1 0.460908 0.362472 0.34455
90 1 0.470479 0.306335 0.394793
91 1 0.458627 0.160603 0.481062
92 1 0.448211 0.199578 0.451231
93 1 0.482302 0.3461 0.390872
94 1 0.491015 0.30345 0.468236
95 1 0.478881 0.16455 0.518416
96 1 0.469262 0.193789 0.464582
97 1 0.501731 0.339462 0.483465
98 1 0.509024 0.317077 0.578912
99 1 0.496057 0.203541 0.641952
100 1 0.488577 0.203978 0.554398
101 1 0.519547 0.35222 0.59852
102 1 0.524869 0.380206 0.714857
103 1 0.510836 0.286852 0.782726
104 1 0.505217 0.252499 0.683799
105 1 0.535353 0.439803 0.721223
106 1 0.539213 0.506112 0.829666
107 1 0.525611 0.415392 0.907692
108 1 0.519747 0.348823 0.824914
109 1 0.547148 0.611825 0.821355
110 1 0.546121 0.743694 0.883311
111 1 0.53319 0.624843 0.99898
112 1 0.532794 0.509774 0.936377
113 1 0.549448 0.862786 0.808791
114 1 0.541226 0.933704 0.737857
115 1 0.531008 0.864677 0.912125
116 1 0.536286 0.755609 0.968814
117 1 0.542697 0.977557 0.610895
118 1 0.533834 0.945728 0.52303
119 1 0.523332 0.932268 0.699083
120 1 0.530322 0.922459 0.797915
121 1 0.535587 0.913543 0.39601
122 1 0.526233 0.860195 0.319264
123 1 0.515693 0.906948 0.484413
124 1 0.523006 0.935732 0.575036
125 1 0.527533 0.791743 0.20537
126 1 0.518827 0.741783 0.132436
127 1 0.50843 0.821465 0.27818
128 1 0.515592 0.867847 0.365105
129 1 0.520147 0.627992 0.0439478
130 1 0.511193 0.538743 0.0130881
131 1 0.500895 0.69714 0.0840601
132 1 0.507639 0.767899 0.165096
133 1 0.512064 0.387918 0.0120356
134 1 0.503365 0.308877 0.0718089
135 1 0.492417 0.474436 -0.00209989
136 1 0.499526 0.581714 0.0094255
137 1 0.504975 0.222305 0.176246
138 1 0.496102 0.154351 0.254637
139 1 0.485081 0.267323 0.117777
140 1 0.491875 0.350223 0.0529716
141 1 0.498672 0.0751422 0.359872
142 1 0.4893 0.0148184 0.44149
143 1 0.478053 0.0937615 0.280927
144 1 0.485158 0.169267 0.206239
145 1 0.490697 -0.000548298 0.576654
146 1 0.481737 0.0352796 0.663654
147 1 0.470885 -0.0161792 0.492459
148 1 0.477626 0.0156247 0.387172
149 1 0.484018 0.136692 0.758766
150 1 0.481174 0.271005 0.722587
151 1 0.467072 0.158655 0.652029
152 1 0.469989 0.0245692 0.618535
153 1 0.489102 0.379658 0.732919
154 1 0.492592 0.468807 0.630435
155 1 0.47617 0.401867 0.566313
156 1 0.471615 0.291208 0.64568
157 1 0.503783 0.515241 0.608379
158 1 0.509042 0.553307 0.496367
159 1 0.492223 0.555719 0.437157
160 1 0.485322 0.487918 0.534697
161 1 0.520505 0.576439 0.486871
162 1 0.52745 0.57934 0.381639
163 1 0.511575 0.610709 0.297445
164 1 0.502739 0.591799 0.388073
165 1 0.54002 0.559454 0.375225
166 1 0.549584 0.510076 0.29243
167 1 0.533955 0.523357 0.191252
168 1 0.523668 0.587288 0.251841
169 1 0.560714 0.524749 0.30416
170 1 0.570838 0.471364 0.241411
171 1 0.555827 0.383534 0.141453
172 1 0.54485 0.463509 0.180878
173 1 0.582568 0.506475 0.268894
174 1 0.592577 0.434896 0.228599
175 1 0.578956 0.322893 0.117697
176 1 0.56768 0.372601 0.148463
177 1 0.604071 0.485325 0.262907
178 1 0.614754 0.427124 0.218458
179 1 0.602078 0.295135 0.107231
180 1 0.591034 0.331673 0.132264
181 1 0.625769 0.471705 0.252167
182 1 0.636325 0.414166 0.215304
183 1 0.624282 0.26955 0.113683
184 1 0.613354 0.314525 0.127726
185 1 0.647516 0.465309 0.254797
186 1 0.657934 0.401166 0.218882
187 1 0.646905 0.244418 0.12929
188 1 0.635876 0.286808 0.132146
189 1 0.669135 0.461308 0.238648
190 1 0.67987 0.397393 0.218113
191 1 0.668829 0.22361 0.141515
192 1 0.658133 0.264207 0.153218
193 1 0.690822 0.451806 0.241922
194 1 0.701226 0.384278 0.214358
195 1 0.690009 0.208106 0.138725
196 1 0.679376 0.262233 0.15773
197 1 0.711929 0.452802 0.228723
198 1 0.722474 0.381238 0.203123
199 1 0.711686 0.204192 0.153836
200 1 0.700778 0.243174 0.162561
201 1 0.733743 0.443827 0.22328
202 1 0.744377 0.368457 0.20862
203 1 0.733349 0.191836 0.158674
204 1 0.722579 0.237691 0.163282
205 1 0.755288 0.430163 0.239294
206 1 0.765953 0.359187 0.222482
207 1 0.754957 0.183029 0.173857
208 1 0.744372 0.228534 0.171751
209 1 0.776789 0.423204 0.246484
210 1 0.787339 0.353417 0.230725
211 1 0.776387 0.171793 0.185686
212 1 0.765654 0.220311 0.18846
213 1 0.798524 0.415794 0.25027
214 1 0.808812 0.350148 0.235361
215 1 0.797741 0.169334 0.19318
216 1 0.787017 0.208531 0.198931
217 1 0.820055 0.411955 0.248259
218 1 0.830558 0.342115 0.243948
219 1 0.819906 0.15276 0.221819
220 1 0.808947 0.205733 0.212806
221 1 0.841253 0.413729 0.250122
222 1 0.851809 0.339264 0.243616
223 1 0.841581 0.148937 0.219265
224 1 0.83083 0.193151 0.230259
225 1 0.862833 0.406452 0.246034
226 1 0.873482 0.344788 0.244906
227 1 0.862914 0.151889 0.229582
228 1 0.852182 0.191255 0.225057
229 1 0.884768 0.412293 0.244994
230 1 0.895866 0.343704 0.238206
231 1 0.884736 0.150911 0.233658
232 1 0.873678 0.195494 0.242166
233 1 0.90643 0.414505 0.245765
234 1 0.91713 0.343835 0.248679
235 1 0.906305 0.151273 0.240621
236 1 0.896098 0.194145 0.232518
237 1 0.927912 0.41186 0.246729
238 1 0.938243 0.346524 0.251278
239 1 0.928121 0.149623 0.25194
240 1 0.917259 0.19725 0.245711
241 1 0.949374 0.414895 0.248026
242 1 0.95982 0.348115 0.242407
243 1 0.949444 0.165222 0.249012
244 1 0.938416 0.20074 0.25741
245 1 0.97032 0.415136 0.245644
246 1 0.980776 0.345211 0.246623
247 1 0.970544 0.159865 0.242027
248 1 0.959996 0.201516 0.238829
249 1 0.0302524 0.802136 0.239159
250 1 0.0407364 0.75923 0.233037
251 1 0.030356 0.547116 0.243671
252 1 0.0199857 0.617767 0.245866
253 1 0.051437 0.801987 0.231288
254 1 0.0618249 0.76679 0.230133
255 1 0.0518969 0.546554 0.240659
256 1 0.0409256 0.612967 0.238627
257 1 0.0724579 0.810933 0.215079
258 1 0.0829914 0.76791 0.210452
259 1 0.0731096 0.549325 0.240416
260 1 0.0628347 0.619668 0.238546
261 1 0.093877 0.809218 0.206149
262 1 0.104831 0.77022 0.209339
263 1 0.0947886 0.556452 0.233329
264 1 0.0838823 0.620955 0.225771
265 1 0.116014 0.812793 0.191623
266 1 0.126557 0.760055 0.193471
267 1 0.116492 0.549664 0.232663
268 1 0.105494 0.618971 0.227677
269 1 0.137379 0.802408 0.169222
270 1 0.148563 0.760514 0.173321
271 1 0.138154 0.554709 0.239212
272 1 0.127158 0.616484 0.226708
273 1 0.159488 0.797773 0.158988
274 1 0.170012 0.751445 0.161371
275 1 0.159593 0.553451 0.226909
276 1 0.14876 0.613836 0.215512
277 1 0.181072 0.789103 0.143515
278 1 0.191874 0.745585 0.152831
279 1 0.181037 0.54508 0.228884
280 1 0.17027 0.613118 0.203968
281 1 0.202883 0.783255 0.144075
282 1 0.213563 0.741287 0.158501
283 1 0.20263 0.539947 0.221654
284 1 0.192109 0.60492 0.200109
285 1 0.224185 0.778341 0.134644
286 1 0.235566 0.740415 0.135624
287 1 0.223782 0.541512 0.215019
288 1 0.213334 0.606743 0.203542
289 1 0.246093 0.775322 0.115941
290 1 0.256738 0.738049 0.1295
291 1 0.246267 0.537399 0.211218
292 1 0.234774 0.602502 0.189134
293 1 0.267656 0.772406 0.108883
294 1 0.278604 0.736624 0.125038
295 1 0.267749 0.533291 0.207723
296 1 0.257101 0.600233 0.185274
297 1 0.289564 0.7676 0.109369
298 1 0.300524 0.727873 0.126511
299 1 0.288748 0.532542 0.203646
300 1 0.278336 0.59385 0.172574
301 1 0.310841 0.765274 0.10604
302 1 0.321488 0.719368 0.116341
303 1 0.310678 0.529527 0.209934
304 1 0.300135 0.593581 0.180057
305 1 0.332333 0.754502 0.0963772
306 1 0.343228 0.717422 0.110648
307 1 0.332595 0.530288 0.212669
308 1 0.321936 0.593358 0.180696
309 1 0.354595 0.753027 0.0907705
310 1 0.365436 0.715559 0.110381
311 1 0.35392 0.528491 0.213978
312 1 0.342896 0.590064 0.178365
313 1 0.376004 0.734703 0.0791263
314 1 0.387138 0.700724 0.10122
315 1 0.375656 0.528886 0.212735
316 1 0.364647 0.589613 0.181946
317 1 0.39877 0.731081 0.0940504
318 1 0.40976 0.688478 0.122981
319 1 0.396993 0.517159 0.218511
320 1 0.386904 0.579455 0.181071
321 1 0.420799 0.706952 0.0946282
322 1 0.431586 0.667083 0.11442
323 1 0.419147 0.501923 0.237466
324 1 0.408284 0.567106 0.203531
325 1 0.443447 0.68434 0.0999774
326 1 0.454914 0.643105 0.126167
327 1 0.441199 0.488976 0.241009
328 1 0.430423 0.547568 0.197392
329 1 0.466428 0.645165 0.112326
330 1 0.477672 0.592222 0.148918
331 1 0.462329 0.465702 0.265162
332 1 0.452467 0.528193 0.210279
333 1 0.489362 0.571941 0.161858
334 1 0.501766 0.486933 0.180744
335 1 0.484276 0.43207 0.298391
336 1 0.474099 0.491113 0.237012
337 1 0.513298 0.434707 0.195666
338 1 0.523637 0.38183 0.268294
339 1 0.505835 0.384809 0.374697
340 1 0.496495 0.429956 0.286088
341 1 0.534906 0.358221 0.306952
342 1 0.543834 0.356419 0.401729
343 1 0.525364 0.373626 0.492689
344 1 0.517748 0.38851 0.38548
345 1 0.55431 0.396981 0.453779
346 1 0.560292 0.469091 0.546665
347 1 0.541988 0.436582 0.616247
348 1 0.536822 0.383021 0.50541
349 1 0.568661 0.560128 0.579325
350 1 0.572136 0.674537 0.650618
351 1 0.554184 0.604929 0.719354
352 1 0.55206 0.498976 0.632009
353 1 0.576749 0.806759 0.64825
354 1 0.573966 0.946283 0.608269
355 1 0.559788 0.858174 0.747656
356 1 0.562496 0.707841 0.719892
357 1 0.572437 0.999772 0.483204
358 1 0.565542 0.969889 0.376843
359 1 0.553881 0.974425 0.563651
360 1 0.562604 0.950802 0.652794
361 1 0.565074 0.892458 0.269683
362 1 0.558319 0.818323 0.190227
363 1 0.546146 0.913028 0.345209
364 1 0.554829 0.962116 0.427493
365 1 0.557754 0.718995 0.0940021
366 1 0.550425 0.637485 0.0356887
367 1 0.537886 0.775492 0.159386
368 1 0.547274 0.840142 0.229256
369 1 0.550179 0.498587 -0.00318452
370 1 0.543239 0.389746 0.00583919
371 1 0.530413 0.583448 0.0140536
372 1 0.539202 0.673768 0.0623297
373 1 0.542216 0.278947 0.0830497
374 1 0.535253 0.214112 0.159426
375 1 0.52303 0.339095 0.0255416
376 1 0.531904 0.434942 0.00106323
377 1 0.534952 0.15299 0.273198
378 1 0.528632 0.115185 0.366285
379 1 0.51582 0.190159 0.204119
380 1 0.524203 0.229332 0.123103
381 1 0.52872 0.08005 0.484712
382 1 0.521728 0.0534039 0.586563
383 1 0.508875 0.078577 0.405892
384 1 0.517526 0.125844 0.327505
385 1 0.520969 0.0526511 0.713225
386 1 0.514238 0.0754269 0.809379
387 1 0.501954 0.00951169 0.618496
388 1 0.510843 0.0417166 0.531008
389 1 0.513469 0.143299 0.916029
390 1 0.507456 0.245999 0.969076
391 1 0.494504 0.129388 0.822162
392 1 0.503144 0.0538329 0.748192
393 1 0.510577 0.372124 1.00058
394 1 0.510623 0.501201 0.947025
395 1 0.496266 0.370222 0.833371
396 1 0.497781 0.245345 0.894765
397 1 0.517709 0.603386 0.922679
398 1 0.522797 0.654246 0.822839
399 1 0.509106 0.524084 0.720978
400 1 0.504862 0.473327 0.832955
401 1 0.532362 0.707168 0.783704
402 1 0.539433 0.725239 0.684883
403 1 0.525482 0.600375 0.600206
404 1 0.51895 0.592045 0.712533
405 1 0.547943 0.782041 0.634495
406 1 0.556071 0.766046 0.551661
407 1 0.543752 0.610146 0.488516
408 1 0.536756 0.632334 0.584714
409 1 0.565344 0.80982 0.505177
410 1 0.575326 0.792875 0.458513
411 1 0.56323 0.614145 0.396937
412 1 0.554543 0.653671 0.477751
413 1 0.58585 0.83216 0.464453
414 1 0.595966 0.795668 0.435978
415 1 0.584138 0.607911 0.356973
416 1 0.574429 0.662296 0.408775
417 1 0.607054 0.834615 0.442291
418 1 0.617286 0.789501 0.417763
419 1 0.605616 0.606768 0.334342
420 1 0.595072 0.663105 0.379366
421 1 0.627951 0.822521 0.431981
422 1 0.638298 0.780796 0.416126
423 1 0.627028 0.596123 0.324209
424 1 0.616886 0.662145 0.355864
425 1 0.648966 0.820156 0.417441
426 1 0.659383 0.782321 0.393461
427 1 0.648508 0.59169 0.317782
428 1 0.638603 0.652023 0.354126
429 1 0.670186 0.823589 0.402526
430 1 0.680982 0.784591 0.385931
431 1 0.669797 0.593984 0.296226
432 1 0.658849 0.654342 0.332674
433 1 0.692001 0.814498 0.39643
434 1 0.702677 0.776339 0.367944
435 1 0.691322 0.580207 0.301614
436 1 0.680535 0.647192 0.323719
437 1 0.712778 0.816324 0.375321
438 1 0.723748 0.771633 0.357223
439 1 0.712702 0.578269 0.283102
440 1 0.702173 0.646359 0.313692
441 1 0.734462 0.815144 0.358456
442 1 0.745661 0.782061 0.333468
443 1 0.733633 0.580266 0.276636
444 1 0.723171 0.639733 0.304509
445 1 0.756607 0.820122 0.347663
446 1 0.766986 0.773854 0.341573
447 1 0.75531 0.570213 0.274484
448 1 0.744249 0.641274 0.291014
449 1 0.777882 0.810698 0.336649
450 1 0.788567 0.769946 0.319939
451 1 0.777179 0.561428 0.284513
452 1 0.766713 0.628629 0.305291
453 1 0.79905 0.811397 0.319431
454 1 0.80966 0.773792 0.310622
455 1 0.798633 0.556579 0.280887
456 1 0.787972 0.623108 0.300467
457 1 0.820543 0.811306 0.306454
458 1 0.831004 0.765808 0.30452
459 1 0.820542 0.556178 0.270225
460 1 0.809834 0.627134 0.292007
461 1 0.842155 0.802241 0.304944
462 1 0.852622 0.759214 0.287156
463 1 0.84194 0.553763 0.258446
464 1 0.831173 0.616775 0.27656
465 1 0.863218 0.807413 0.289912
466 1 0.874032 0.771973 0.27953
467 1 0.863033 0.547688 0.259981
468 1 0.852672 0.615378 0.264681
469 1 0.884555 0.816353 0.273919
470 1 0.89515 0.775118 0.275345
471 1 0.884942 0.558401 0.258024
472 1 0.873762 0.619378 0.271211
473 1 0.905837 0.817094 0.281523
474 1 0.917064 0.77544 0.272446
475 1 0.906428 0.559286 0.254781
476 1 0.895592 0.62744 0.25807
477 1 0.927448 0.820896 0.267289
478 1 0.93817 0.780931 0.260647
479 1 0.927925 0.559225 0.255451
480 1 0.916941 0.625278 0.260878
481 1 0.949113 0.822076 0.263694
482 1 0.95982 0.774313 0.25532
483 1 0.949339 0.562021 0.247544
484 1 0.938582 0.630282 0.252047
485 1 0.970225 0.818148 0.25272
486 1 0.980626 0.777179 0.248097
487 1 0.970421 0.559043 0.24698
488 1 0.95994 0.62902 0.249555
489 1 0.991061 0.411654 0.245638
490 1 1.00067 0.341728 0.245556
491 1 0.990928 0.131184 0.245409
492 1 0.981276 0.20079 0.245542
493 1 0.990998 0.831514 0.24566
494 1 1.00066 0.763713 0.245676
495 1 0.990885 0.551439 0.245635
496 1 0.981277 0.623217 0.245723
