ITEM: TIMESTEP
184000
ITEM: NUMBER OF ATOMS
496
ITEM: BOX BOUNDS ss ss ss
-0.00904001 125.146
-0.169187 10.2868
0.439516 11.4056
ITEM: ATOMS id type xs ys zs
1 1 0.00999451 0.444953 0.236611
2 1 0.0197203 0.37548 0.236616
3 1 0.00987479 0.174032 0.236668
4 1 9.81956e-05 0.239744 0.23673
5 1 0.00995907 0.851699 0.236927
6 1 0.0197166 0.78416 0.236685
7 1 0.00982491 0.580222 0.23652
8 1 0.000105497 0.647749 0.236297
9 1 0.0307224 0.436207 0.236325
10 1 0.041324 0.368194 0.238251
11 1 0.0309741 0.185992 0.242607
12 1 0.0204229 0.226764 0.238803
13 1 0.0521615 0.432358 0.233353
14 1 0.0630814 0.372288 0.237086
15 1 0.0522833 0.184339 0.256533
16 1 0.0415837 0.226778 0.24447
17 1 0.0737762 0.439308 0.238555
18 1 0.0843799 0.367 0.246142
19 1 0.0739683 0.184537 0.265085
20 1 0.0632041 0.227199 0.259041
21 1 0.0953377 0.43548 0.243321
22 1 0.106093 0.371154 0.255989
23 1 0.0948771 0.184459 0.265614
24 1 0.0844924 0.227682 0.25848
25 1 0.116946 0.43177 0.255005
26 1 0.127698 0.369334 0.258865
27 1 0.116454 0.18582 0.290985
28 1 0.105915 0.2299 0.274365
29 1 0.138286 0.430451 0.254178
30 1 0.149408 0.37053 0.266152
31 1 0.138102 0.181271 0.293788
32 1 0.127135 0.228921 0.281465
33 1 0.160545 0.430993 0.262585
34 1 0.171317 0.368557 0.266938
35 1 0.160237 0.185442 0.284085
36 1 0.14897 0.22213 0.283997
37 1 0.181586 0.432894 0.260794
38 1 0.192942 0.370294 0.274469
39 1 0.181894 0.190126 0.294905
40 1 0.170727 0.227775 0.279473
41 1 0.20337 0.440787 0.262028
42 1 0.213773 0.37795 0.276559
43 1 0.202969 0.188386 0.306382
44 1 0.192568 0.229558 0.291949
45 1 0.224465 0.435085 0.268215
46 1 0.235213 0.367614 0.283364
47 1 0.224138 0.196858 0.329881
48 1 0.213419 0.237663 0.312926
49 1 0.246324 0.427151 0.26073
50 1 0.256825 0.363144 0.281057
51 1 0.245402 0.192745 0.331969
52 1 0.234855 0.232428 0.322288
53 1 0.267458 0.422993 0.255027
54 1 0.278257 0.361975 0.28376
55 1 0.267252 0.179119 0.331496
56 1 0.256766 0.22596 0.315002
57 1 0.289029 0.42149 0.265302
58 1 0.299935 0.357362 0.285387
59 1 0.288721 0.191001 0.346104
60 1 0.277962 0.223711 0.326689
61 1 0.310646 0.411509 0.260408
62 1 0.320965 0.347434 0.287643
63 1 0.310124 0.191999 0.352947
64 1 0.299459 0.228013 0.340274
65 1 0.331798 0.409575 0.271697
66 1 0.342195 0.341956 0.30146
67 1 0.33101 0.173926 0.364135
68 1 0.320687 0.222754 0.341843
69 1 0.353185 0.397964 0.272455
70 1 0.363843 0.336959 0.304247
71 1 0.352612 0.168475 0.36518
72 1 0.34189 0.213721 0.352346
73 1 0.375167 0.393014 0.28253
74 1 0.385445 0.330823 0.316657
75 1 0.373632 0.167011 0.38707
76 1 0.363405 0.206095 0.358975
77 1 0.396529 0.386501 0.285222
78 1 0.406369 0.325392 0.326027
79 1 0.395091 0.160561 0.408813
80 1 0.384786 0.202007 0.377541
81 1 0.41749 0.37478 0.307218
82 1 0.42812 0.313526 0.339646
83 1 0.416393 0.165078 0.425816
84 1 0.405747 0.200663 0.395928
85 1 0.439244 0.35643 0.305734
86 1 0.449564 0.295158 0.342257
87 1 0.437072 0.155682 0.441615
88 1 0.42691 0.198776 0.413396
89 1 0.46019 0.343326 0.317003
90 1 0.469577 0.302288 0.383516
91 1 0.457933 0.151754 0.468768
92 1 0.447688 0.186839 0.422866
93 1 0.480623 0.349925 0.384231
94 1 0.489188 0.317742 0.473345
95 1 0.477234 0.183547 0.521209
96 1 0.468035 0.198977 0.460843
97 1 0.500394 0.35676 0.491135
98 1 0.506885 0.349671 0.598033
99 1 0.493799 0.239322 0.656935
100 1 0.486852 0.227321 0.563982
101 1 0.51775 0.388292 0.615849
102 1 0.523349 0.413682 0.732685
103 1 0.50903 0.319695 0.803997
104 1 0.502741 0.283592 0.707882
105 1 0.533844 0.46996 0.742563
106 1 0.536933 0.548003 0.848857
107 1 0.522591 0.441948 0.936975
108 1 0.518137 0.380694 0.839796
109 1 0.545495 0.649592 0.845029
110 1 0.543677 0.781403 0.891682
111 1 0.530124 0.667839 0.995285
112 1 0.529706 0.534869 0.958772
113 1 0.546864 0.888735 0.803474
114 1 0.538736 0.952792 0.727399
115 1 0.527917 0.884165 0.894784
116 1 0.533326 0.790853 0.957978
117 1 0.539682 0.971807 0.592381
118 1 0.530807 0.950178 0.5103
119 1 0.520818 0.947217 0.680842
120 1 0.527668 0.941194 0.779745
121 1 0.532214 0.90985 0.384061
122 1 0.523465 0.86363 0.306208
123 1 0.512291 0.915757 0.468617
124 1 0.519655 0.944266 0.558563
125 1 0.525109 0.792878 0.192614
126 1 0.516375 0.733096 0.11844
127 1 0.505034 0.839857 0.257277
128 1 0.512391 0.876765 0.345255
129 1 0.517943 0.621808 0.035356
130 1 0.509135 0.53117 0.00237745
131 1 0.499073 0.6998 0.0663166
132 1 0.505464 0.768168 0.149055
133 1 0.510406 0.38724 0.0200428
134 1 0.501233 0.305185 0.0723118
135 1 0.490767 0.47035 0.0121092
136 1 0.497988 0.579182 0.00261351
137 1 0.503001 0.213051 0.169978
138 1 0.494915 0.153152 0.247369
139 1 0.482986 0.257222 0.11684
140 1 0.489844 0.34361 0.055821
141 1 0.496579 0.0867203 0.372062
142 1 0.487448 0.0365666 0.459512
143 1 0.476681 0.0950127 0.285791
144 1 0.483356 0.161939 0.207092
145 1 0.488529 0.0277877 0.600091
146 1 0.478672 0.0659707 0.676902
147 1 0.469237 0.0034976 0.502006
148 1 0.4762 0.0234646 0.401648
149 1 0.481003 0.169118 0.761546
150 1 0.478377 0.306395 0.72306
151 1 0.464543 0.188942 0.648889
152 1 0.467717 0.0540755 0.623294
153 1 0.486167 0.407187 0.729598
154 1 0.489681 0.489892 0.624803
155 1 0.473244 0.415176 0.547752
156 1 0.469557 0.318876 0.635625
157 1 0.500615 0.545975 0.609072
158 1 0.506769 0.578106 0.49469
159 1 0.4905 0.559733 0.413933
160 1 0.483185 0.500438 0.506773
161 1 0.51885 0.58208 0.483948
162 1 0.527003 0.575628 0.381297
163 1 0.510726 0.61548 0.28433
164 1 0.501962 0.601436 0.374219
165 1 0.538496 0.57633 0.376466
166 1 0.547332 0.531776 0.295791
167 1 0.533139 0.518974 0.19328
168 1 0.522607 0.59087 0.259881
169 1 0.559438 0.543103 0.309707
170 1 0.56911 0.473537 0.256657
171 1 0.554993 0.391855 0.142969
172 1 0.544629 0.460095 0.18912
173 1 0.581386 0.512246 0.28392
174 1 0.591575 0.455211 0.235159
175 1 0.578055 0.342799 0.120722
176 1 0.567031 0.386286 0.150306
177 1 0.602792 0.500745 0.271281
178 1 0.613236 0.445862 0.228825
179 1 0.600556 0.320722 0.111459
180 1 0.589796 0.358772 0.138419
181 1 0.624381 0.500295 0.260642
182 1 0.634559 0.447875 0.207058
183 1 0.622535 0.306337 0.0979857
184 1 0.611684 0.343857 0.133258
185 1 0.646129 0.499029 0.235324
186 1 0.656322 0.446515 0.191743
187 1 0.644696 0.29631 0.0917708
188 1 0.633861 0.335909 0.119518
189 1 0.667473 0.50416 0.221772
190 1 0.678019 0.44228 0.192175
191 1 0.666813 0.29329 0.0884102
192 1 0.655635 0.32971 0.110636
193 1 0.689216 0.494096 0.220727
194 1 0.700228 0.431272 0.194195
195 1 0.688289 0.272275 0.10178
196 1 0.67757 0.322174 0.11805
197 1 0.711307 0.484568 0.208552
198 1 0.721656 0.416095 0.183035
199 1 0.709965 0.256628 0.111508
200 1 0.699269 0.296725 0.131048
201 1 0.732212 0.47936 0.206906
202 1 0.743129 0.413801 0.181663
203 1 0.731661 0.24273 0.117261
204 1 0.721041 0.290663 0.12372
205 1 0.754241 0.474065 0.203557
206 1 0.764972 0.41172 0.191008
207 1 0.753716 0.236501 0.132875
208 1 0.742568 0.275822 0.139304
209 1 0.775909 0.470541 0.20347
210 1 0.786407 0.408154 0.189801
211 1 0.775304 0.231243 0.140548
212 1 0.764477 0.275045 0.149041
213 1 0.797079 0.463796 0.216248
214 1 0.807801 0.399971 0.198577
215 1 0.796181 0.228664 0.150904
216 1 0.785699 0.272889 0.158327
217 1 0.818622 0.46402 0.211096
218 1 0.82913 0.398032 0.194869
219 1 0.818336 0.224828 0.154846
220 1 0.807141 0.264253 0.162957
221 1 0.840123 0.454909 0.218039
222 1 0.850674 0.381677 0.209143
223 1 0.839885 0.212293 0.150051
224 1 0.829223 0.262314 0.15839
225 1 0.861732 0.44307 0.231943
226 1 0.872412 0.37326 0.225242
227 1 0.862012 0.199252 0.178631
228 1 0.850997 0.24491 0.173902
229 1 0.883055 0.438423 0.236671
230 1 0.893724 0.376776 0.220924
231 1 0.883121 0.194357 0.189325
232 1 0.87246 0.237067 0.192451
233 1 0.904473 0.438606 0.235628
234 1 0.915437 0.374694 0.226874
235 1 0.90511 0.195511 0.190901
236 1 0.893895 0.23333 0.197335
237 1 0.926017 0.443513 0.24022
238 1 0.936917 0.384068 0.243972
239 1 0.926709 0.199582 0.216046
240 1 0.915838 0.229964 0.205547
241 1 0.947581 0.447509 0.238962
242 1 0.958599 0.382885 0.233395
243 1 0.948322 0.199696 0.236914
244 1 0.93731 0.240128 0.235662
245 1 0.969221 0.447736 0.236661
246 1 0.979798 0.380076 0.237648
247 1 0.969448 0.200735 0.233011
248 1 0.958778 0.241037 0.229786
249 1 0.0306038 0.822197 0.230119
250 1 0.0412096 0.780681 0.223943
251 1 0.0307087 0.575439 0.23467
252 1 0.0202178 0.643801 0.236885
253 1 0.0519289 0.827069 0.21338
254 1 0.0626464 0.786466 0.208284
255 1 0.0521714 0.570042 0.227883
256 1 0.041401 0.639157 0.229582
257 1 0.0731033 0.830263 0.208381
258 1 0.0842936 0.788846 0.210441
259 1 0.0739406 0.58329 0.230843
260 1 0.0629262 0.640986 0.222187
261 1 0.095021 0.83033 0.205825
262 1 0.106253 0.792993 0.210592
263 1 0.0958516 0.576825 0.229377
264 1 0.0846537 0.648486 0.220825
265 1 0.117621 0.831169 0.205083
266 1 0.127995 0.780393 0.20345
267 1 0.117308 0.579103 0.238827
268 1 0.106564 0.644779 0.220631
269 1 0.138924 0.819806 0.199471
270 1 0.149785 0.780088 0.205004
271 1 0.138661 0.574471 0.237907
272 1 0.127934 0.638238 0.229558
273 1 0.160215 0.820134 0.189337
274 1 0.171192 0.778684 0.20094
275 1 0.160381 0.573422 0.24075
276 1 0.149839 0.636256 0.231821
277 1 0.181892 0.81603 0.190903
278 1 0.192377 0.775809 0.19337
279 1 0.181699 0.571842 0.237843
280 1 0.170802 0.637139 0.231873
281 1 0.203056 0.816353 0.179079
282 1 0.214249 0.77738 0.18952
283 1 0.203189 0.577252 0.240611
284 1 0.191781 0.639177 0.219399
285 1 0.224877 0.81626 0.174373
286 1 0.235483 0.769638 0.184208
287 1 0.224954 0.57079 0.240827
288 1 0.214155 0.640186 0.22472
289 1 0.246662 0.809014 0.173251
290 1 0.257047 0.764579 0.167746
291 1 0.24635 0.555656 0.221955
292 1 0.235873 0.628613 0.212448
293 1 0.268114 0.795871 0.152203
294 1 0.27889 0.755061 0.15291
295 1 0.267757 0.557443 0.213161
296 1 0.256582 0.622769 0.201588
297 1 0.289892 0.787101 0.140554
298 1 0.30031 0.743205 0.156345
299 1 0.289475 0.552164 0.219191
300 1 0.278249 0.616846 0.193135
301 1 0.31109 0.781523 0.134976
302 1 0.321913 0.734179 0.151111
303 1 0.310755 0.539516 0.210215
304 1 0.300216 0.608924 0.20152
305 1 0.333042 0.773498 0.145906
306 1 0.343649 0.72967 0.153305
307 1 0.33237 0.537394 0.214058
308 1 0.32185 0.597712 0.185736
309 1 0.354792 0.761305 0.138006
310 1 0.365526 0.714771 0.145691
311 1 0.353772 0.517013 0.209929
312 1 0.34315 0.593094 0.190491
313 1 0.376643 0.745604 0.123129
314 1 0.387608 0.703288 0.137325
315 1 0.375344 0.521283 0.221
316 1 0.365058 0.579397 0.191943
317 1 0.398212 0.735439 0.120072
318 1 0.408963 0.687399 0.138579
319 1 0.397114 0.509554 0.223846
320 1 0.386671 0.574677 0.195307
321 1 0.42043 0.715977 0.12257
322 1 0.431518 0.670107 0.142769
323 1 0.418699 0.498295 0.238001
324 1 0.407889 0.5658 0.204557
325 1 0.442686 0.690336 0.120369
326 1 0.453926 0.642348 0.140477
327 1 0.440167 0.479955 0.238022
328 1 0.429691 0.548975 0.215085
329 1 0.466296 0.659646 0.1356
330 1 0.477517 0.604521 0.161298
331 1 0.462192 0.450794 0.241075
332 1 0.452047 0.517821 0.205082
333 1 0.489931 0.576039 0.176189
334 1 0.500848 0.494243 0.176518
335 1 0.48422 0.422043 0.286165
336 1 0.473852 0.478728 0.222189
337 1 0.51327 0.43475 0.203176
338 1 0.522592 0.391207 0.284356
339 1 0.504854 0.394233 0.382473
340 1 0.496498 0.423893 0.282156
341 1 0.533962 0.370611 0.321598
342 1 0.542322 0.386036 0.4178
343 1 0.523482 0.386997 0.503082
344 1 0.516768 0.39294 0.395638
345 1 0.552825 0.42843 0.460237
346 1 0.558844 0.502728 0.556463
347 1 0.540697 0.461974 0.642534
348 1 0.535305 0.41184 0.52499
349 1 0.567406 0.599131 0.582909
350 1 0.570503 0.722419 0.648663
351 1 0.553185 0.631039 0.748071
352 1 0.55113 0.52923 0.653851
353 1 0.57537 0.849667 0.634212
354 1 0.571625 0.973483 0.582703
355 1 0.557708 0.880442 0.743856
356 1 0.560514 0.739744 0.729785
357 1 0.570152 1.00047 0.453076
358 1 0.562998 0.967407 0.354348
359 1 0.550581 0.979469 0.543523
360 1 0.559699 0.956936 0.631557
361 1 0.562329 0.894071 0.246596
362 1 0.555954 0.813994 0.179234
363 1 0.543148 0.905428 0.336694
364 1 0.551998 0.962057 0.410417
365 1 0.555754 0.70738 0.0948965
366 1 0.548835 0.626799 0.040011
367 1 0.536183 0.764489 0.15707
368 1 0.544894 0.830608 0.224651
369 1 0.547895 0.497021 0.000663927
370 1 0.541705 0.389805 0.00730279
371 1 0.529104 0.572468 0.0135128
372 1 0.537703 0.658137 0.0614735
373 1 0.540464 0.283079 0.085611
374 1 0.534204 0.220297 0.167207
375 1 0.521373 0.337563 0.0429166
376 1 0.530365 0.427159 0.00722854
377 1 0.533912 0.171216 0.289727
378 1 0.527249 0.129663 0.379336
379 1 0.514221 0.188969 0.207518
380 1 0.522656 0.241566 0.134515
381 1 0.525765 0.122986 0.509065
382 1 0.519396 0.101431 0.606383
383 1 0.507371 0.0932851 0.418707
384 1 0.515818 0.124127 0.331625
385 1 0.518435 0.111999 0.734619
386 1 0.510883 0.112175 0.828949
387 1 0.499225 0.0458561 0.645928
388 1 0.508419 0.0691872 0.55705
389 1 0.510087 0.174862 0.936846
390 1 0.504441 0.280512 0.986522
391 1 0.491454 0.159418 0.830826
392 1 0.50046 0.0806343 0.774198
393 1 0.507327 0.403535 1.01062
394 1 0.507514 0.52834 0.954527
395 1 0.493685 0.400594 0.83459
396 1 0.495039 0.275977 0.902582
397 1 0.514915 0.62323 0.918048
398 1 0.521967 0.661358 0.822411
399 1 0.506153 0.557826 0.723754
400 1 0.501684 0.504134 0.837516
401 1 0.530695 0.720715 0.778724
402 1 0.537708 0.719578 0.68584
403 1 0.523569 0.597289 0.603861
404 1 0.517275 0.602077 0.714548
405 1 0.546045 0.782775 0.640343
406 1 0.554295 0.77846 0.55513
407 1 0.542148 0.620863 0.487187
408 1 0.534903 0.640707 0.586147
409 1 0.56369 0.818615 0.499928
410 1 0.573702 0.798353 0.45035
411 1 0.561407 0.626226 0.405493
412 1 0.552646 0.669219 0.477634
413 1 0.584158 0.839104 0.463626
414 1 0.594373 0.801741 0.4367
415 1 0.582351 0.620112 0.362242
416 1 0.572109 0.669968 0.404175
417 1 0.605005 0.843913 0.443143
418 1 0.61568 0.807739 0.422653
419 1 0.603857 0.622806 0.338769
420 1 0.593183 0.677001 0.377305
421 1 0.626055 0.852578 0.440466
422 1 0.636744 0.804455 0.416476
423 1 0.625322 0.616032 0.33067
424 1 0.614892 0.680633 0.365867
425 1 0.647383 0.842353 0.433309
426 1 0.65803 0.799355 0.403503
427 1 0.646627 0.612394 0.310818
428 1 0.636438 0.675226 0.350315
429 1 0.668892 0.838542 0.407973
430 1 0.679563 0.802567 0.380314
431 1 0.668405 0.624115 0.288581
432 1 0.657623 0.679524 0.331976
433 1 0.690427 0.838355 0.37976
434 1 0.701289 0.801749 0.354729
435 1 0.689551 0.615112 0.283665
436 1 0.679335 0.678451 0.319174
437 1 0.711967 0.836728 0.374783
438 1 0.722375 0.797789 0.340002
439 1 0.71131 0.612464 0.261793
440 1 0.700471 0.67356 0.29988
441 1 0.732827 0.846184 0.339682
442 1 0.743664 0.805859 0.323285
443 1 0.732752 0.609496 0.262497
444 1 0.722111 0.67131 0.280554
445 1 0.754912 0.833984 0.331025
446 1 0.765515 0.791291 0.309408
447 1 0.754892 0.605371 0.253992
448 1 0.744026 0.668751 0.283089
449 1 0.776153 0.834466 0.317786
450 1 0.787281 0.80453 0.304331
451 1 0.776192 0.599173 0.248945
452 1 0.765687 0.660623 0.264394
453 1 0.797955 0.848804 0.316633
454 1 0.808671 0.803252 0.302757
455 1 0.797404 0.599464 0.246729
456 1 0.787241 0.664887 0.267689
457 1 0.819466 0.834689 0.30592
458 1 0.829848 0.792999 0.296082
459 1 0.819026 0.596342 0.242097
460 1 0.808309 0.659849 0.267673
461 1 0.84083 0.832672 0.302602
462 1 0.851059 0.785304 0.287263
463 1 0.840404 0.58771 0.252717
464 1 0.829916 0.655715 0.261329
465 1 0.861667 0.827102 0.29013
466 1 0.872384 0.7886 0.280817
467 1 0.862261 0.580586 0.254443
468 1 0.851168 0.648838 0.265072
469 1 0.882957 0.830734 0.276221
470 1 0.893648 0.787049 0.26946
471 1 0.882942 0.581629 0.24742
472 1 0.872626 0.646111 0.264142
473 1 0.904314 0.82628 0.262515
474 1 0.915109 0.790268 0.254049
475 1 0.904505 0.577776 0.247253
476 1 0.89374 0.646893 0.253229
477 1 0.925732 0.831122 0.249546
478 1 0.936917 0.796478 0.248118
479 1 0.926227 0.586279 0.245761
480 1 0.915298 0.649689 0.251417
481 1 0.947664 0.838241 0.251845
482 1 0.958599 0.795275 0.246421
483 1 0.946756 0.585231 0.248123
484 1 0.936123 0.656512 0.245803
485 1 0.969125 0.83769 0.243798
486 1 0.979647 0.798048 0.239135
487 1 0.969323 0.58698 0.238009
488 1 0.958721 0.654689 0.240606
489 1 0.990203 0.444366 0.236655
490 1 0.999922 0.376706 0.236572
491 1 0.990069 0.172983 0.236423
492 1 0.980305 0.240334 0.236558
493 1 0.99014 0.850623 0.236677
494 1 0.999913 0.785018 0.236693
495 1 0.990025 0.579622 0.236652
496 1 0.980306 0.649074 0.23674
