ITEM: TIMESTEP
122000
ITEM: NUMBER OF ATOMS
496
ITEM: BOX BOUNDS ss ss ss
-0.00904001 124.38
-0.278314 10.5879
0.370022 11.5439
ITEM: ATOMS id type xs ys zs
1 1 0.0100561 0.4382 0.23843
2 1 0.0198419 0.371349 0.238435
3 1 0.00993565 0.177506 0.238486
4 1 9.88008e-05 0.240737 0.238547
5 1 0.0100204 0.829593 0.238741
6 1 0.0198381 0.764603 0.238503
7 1 0.00988547 0.568364 0.238341
8 1 0.000106148 0.633342 0.238122
9 1 0.0309118 0.429785 0.238149
10 1 0.0415787 0.364338 0.24004
11 1 0.031165 0.189015 0.244315
12 1 0.0205488 0.228247 0.240582
13 1 0.052152 0.427869 0.236453
14 1 0.0627909 0.367114 0.241129
15 1 0.0527872 0.183661 0.242323
16 1 0.04184 0.228261 0.246143
17 1 0.0737871 0.437207 0.241031
18 1 0.0846519 0.380632 0.236902
19 1 0.0741454 0.192191 0.243233
20 1 0.0636079 0.229252 0.241791
21 1 0.095628 0.441304 0.226301
22 1 0.105972 0.375623 0.22798
23 1 0.0952691 0.200345 0.250635
24 1 0.0845119 0.238772 0.243824
25 1 0.116845 0.439989 0.224066
26 1 0.127494 0.382188 0.24812
27 1 0.116748 0.200249 0.265556
28 1 0.105792 0.238154 0.245743
29 1 0.138442 0.44153 0.23172
30 1 0.149321 0.381933 0.24687
31 1 0.138538 0.209075 0.268338
32 1 0.128008 0.247013 0.268732
33 1 0.159707 0.440951 0.237886
34 1 0.170472 0.376099 0.246806
35 1 0.159305 0.20664 0.27214
36 1 0.149227 0.249814 0.266577
37 1 0.181083 0.43238 0.239617
38 1 0.191846 0.371738 0.260935
39 1 0.181001 0.201529 0.285359
40 1 0.17002 0.241624 0.267393
41 1 0.202815 0.429628 0.254185
42 1 0.213172 0.365263 0.267118
43 1 0.202205 0.201756 0.309907
44 1 0.191643 0.238975 0.292789
45 1 0.224243 0.421394 0.243785
46 1 0.234834 0.357865 0.250683
47 1 0.223766 0.190964 0.317973
48 1 0.212989 0.234669 0.307659
49 1 0.245796 0.414828 0.232826
50 1 0.257019 0.356662 0.26696
51 1 0.245362 0.193768 0.323487
52 1 0.234327 0.229743 0.302476
53 1 0.267133 0.42323 0.249117
54 1 0.278373 0.36519 0.279568
55 1 0.267262 0.197902 0.339445
56 1 0.256062 0.228646 0.315207
57 1 0.288981 0.424725 0.258615
58 1 0.299049 0.361344 0.275106
59 1 0.288254 0.204397 0.360408
60 1 0.277512 0.243891 0.338613
61 1 0.310782 0.405306 0.245919
62 1 0.321104 0.350948 0.276442
63 1 0.309394 0.202098 0.361379
64 1 0.299056 0.239427 0.338365
65 1 0.331946 0.4042 0.258899
66 1 0.342375 0.348557 0.291464
67 1 0.331125 0.205863 0.374414
68 1 0.320383 0.236287 0.349711
69 1 0.353551 0.396057 0.267445
70 1 0.363781 0.336346 0.304336
71 1 0.352136 0.183073 0.377825
72 1 0.341972 0.228804 0.355806
73 1 0.374487 0.386006 0.278542
74 1 0.385102 0.323978 0.304849
75 1 0.373227 0.17129 0.390791
76 1 0.362921 0.213547 0.36663
77 1 0.396118 0.376745 0.282384
78 1 0.406588 0.317192 0.318468
79 1 0.394864 0.171011 0.402666
80 1 0.384302 0.203421 0.373364
81 1 0.417506 0.362976 0.293347
82 1 0.427929 0.306042 0.33705
83 1 0.415857 0.164599 0.423377
84 1 0.405627 0.202079 0.393304
85 1 0.438515 0.356893 0.317956
86 1 0.448185 0.295254 0.359061
87 1 0.436547 0.15182 0.45057
88 1 0.426492 0.189399 0.407844
89 1 0.459962 0.34253 0.338993
90 1 0.46969 0.300123 0.400815
91 1 0.457611 0.157136 0.478348
92 1 0.447344 0.183911 0.436804
93 1 0.480696 0.345083 0.398084
94 1 0.489064 0.318978 0.480513
95 1 0.477645 0.185807 0.533328
96 1 0.467957 0.196571 0.473526
97 1 0.499836 0.37164 0.495165
98 1 0.507066 0.362637 0.594887
99 1 0.494295 0.246569 0.659154
100 1 0.486951 0.232035 0.572097
101 1 0.518066 0.409561 0.603292
102 1 0.524089 0.426951 0.713658
103 1 0.509496 0.337513 0.792379
104 1 0.503176 0.305749 0.699412
105 1 0.534412 0.485171 0.725589
106 1 0.537981 0.555289 0.827739
107 1 0.52374 0.458414 0.917216
108 1 0.518599 0.399728 0.8261
109 1 0.546039 0.652663 0.811105
110 1 0.544146 0.778252 0.857738
111 1 0.531692 0.669694 0.97932
112 1 0.531389 0.552128 0.934465
113 1 0.54786 0.884884 0.786392
114 1 0.538992 0.954708 0.71869
115 1 0.527834 0.881002 0.892109
116 1 0.534706 0.78673 0.941801
117 1 0.540089 0.975605 0.586574
118 1 0.531 0.947799 0.502757
119 1 0.520548 0.935157 0.680295
120 1 0.527811 0.940681 0.776305
121 1 0.532562 0.916275 0.374377
122 1 0.523526 0.85966 0.301181
123 1 0.51287 0.904357 0.473643
124 1 0.520001 0.939066 0.558818
125 1 0.524736 0.780061 0.195661
126 1 0.516171 0.721584 0.127634
127 1 0.505527 0.805826 0.27221
128 1 0.512529 0.860891 0.357441
129 1 0.517588 0.613329 0.0400132
130 1 0.508305 0.524572 0.0120771
131 1 0.498438 0.678104 0.0784513
132 1 0.505198 0.748049 0.163391
133 1 0.508921 0.378299 0.0288052
134 1 0.500279 0.30486 0.0938875
135 1 0.489673 0.46561 0.0356046
136 1 0.496872 0.566935 0.017532
137 1 0.501979 0.208385 0.187046
138 1 0.493796 0.15173 0.269645
139 1 0.482539 0.259281 0.153889
140 1 0.488869 0.344324 0.0853857
141 1 0.496018 0.0882249 0.388122
142 1 0.4878 0.0365259 0.474145
143 1 0.476274 0.0926228 0.322088
144 1 0.482077 0.164095 0.244308
145 1 0.488944 0.039166 0.607972
146 1 0.479335 0.0740321 0.6916
147 1 0.469731 0.0139934 0.530768
148 1 0.476562 0.0232502 0.428185
149 1 0.482365 0.178777 0.773937
150 1 0.479309 0.308577 0.732489
151 1 0.465135 0.202089 0.658602
152 1 0.468075 0.0704487 0.642119
153 1 0.487011 0.404429 0.733745
154 1 0.490495 0.48111 0.630049
155 1 0.474207 0.41455 0.566201
156 1 0.470382 0.318888 0.646784
157 1 0.500695 0.542304 0.61478
158 1 0.506129 0.574084 0.501995
159 1 0.489638 0.551955 0.434428
160 1 0.482929 0.492848 0.526424
161 1 0.517948 0.595015 0.489061
162 1 0.52506 0.587682 0.382651
163 1 0.509959 0.612215 0.297141
164 1 0.500864 0.598935 0.388087
165 1 0.537496 0.585453 0.378336
166 1 0.545833 0.547559 0.294089
167 1 0.531196 0.527119 0.193512
168 1 0.521493 0.587214 0.256978
169 1 0.558048 0.559729 0.293991
170 1 0.56743 0.495576 0.244834
171 1 0.55335 0.403727 0.156214
172 1 0.542599 0.475655 0.188587
173 1 0.57933 0.533337 0.257098
174 1 0.589463 0.473026 0.217529
175 1 0.575906 0.347323 0.133389
176 1 0.565309 0.391618 0.161522
177 1 0.601289 0.515909 0.246535
178 1 0.611506 0.44934 0.209588
179 1 0.598992 0.317877 0.122298
180 1 0.588121 0.359765 0.140596
181 1 0.622943 0.501969 0.23684
182 1 0.633599 0.441946 0.203835
183 1 0.62145 0.293159 0.121226
184 1 0.610636 0.335681 0.138828
185 1 0.644505 0.492616 0.232151
186 1 0.655389 0.434937 0.207298
187 1 0.643895 0.284554 0.12054
188 1 0.63247 0.320302 0.14022
189 1 0.666047 0.477144 0.241466
190 1 0.677521 0.417771 0.203072
191 1 0.665353 0.2675 0.124972
192 1 0.654946 0.312137 0.141756
193 1 0.688446 0.472222 0.232528
194 1 0.698822 0.408085 0.201387
195 1 0.687703 0.25883 0.121897
196 1 0.676482 0.294601 0.135203
197 1 0.71038 0.460403 0.221066
198 1 0.720832 0.403824 0.195725
199 1 0.709675 0.238466 0.133097
200 1 0.698696 0.288392 0.139951
201 1 0.731462 0.465089 0.226541
202 1 0.742347 0.399883 0.215434
203 1 0.731047 0.231621 0.153724
204 1 0.720696 0.274506 0.154405
205 1 0.752944 0.46462 0.227189
206 1 0.763564 0.399744 0.211546
207 1 0.753019 0.224923 0.165909
208 1 0.742253 0.26533 0.172609
209 1 0.775177 0.463092 0.224524
210 1 0.785521 0.4014 0.20485
211 1 0.774738 0.218799 0.172115
212 1 0.764001 0.264619 0.176164
213 1 0.796377 0.459948 0.220747
214 1 0.806737 0.39726 0.206441
215 1 0.795769 0.225438 0.176121
216 1 0.785013 0.26411 0.183144
217 1 0.81768 0.457237 0.21422
218 1 0.828812 0.390582 0.20576
219 1 0.817368 0.221018 0.175746
220 1 0.806641 0.260681 0.183334
221 1 0.8395 0.44922 0.221812
222 1 0.850391 0.384547 0.218224
223 1 0.839336 0.21948 0.182895
224 1 0.828426 0.259403 0.181457
225 1 0.861306 0.44152 0.228837
226 1 0.872167 0.379901 0.219846
227 1 0.860921 0.209583 0.199495
228 1 0.850392 0.25131 0.194959
229 1 0.882963 0.442665 0.228908
230 1 0.893683 0.38235 0.219999
231 1 0.882728 0.205787 0.200248
232 1 0.871956 0.24125 0.208053
233 1 0.904453 0.443428 0.230656
234 1 0.914904 0.381923 0.224844
235 1 0.904564 0.202147 0.200041
236 1 0.893483 0.242038 0.203748
237 1 0.925977 0.442696 0.224475
238 1 0.936977 0.383638 0.228512
239 1 0.925877 0.198074 0.222416
240 1 0.915128 0.239899 0.214436
241 1 0.947401 0.444016 0.231258
242 1 0.958383 0.378476 0.235274
243 1 0.947514 0.208969 0.232841
244 1 0.936468 0.241611 0.226223
245 1 0.96907 0.440878 0.238479
246 1 0.979713 0.375772 0.239448
247 1 0.969299 0.203201 0.234898
248 1 0.958563 0.241981 0.231732
249 1 0.0307924 0.801204 0.232059
250 1 0.0414636 0.761255 0.225998
251 1 0.0308979 0.563761 0.236525
252 1 0.0203424 0.629543 0.238699
253 1 0.0518689 0.811387 0.219966
254 1 0.0626673 0.773828 0.218647
255 1 0.0522142 0.564202 0.230616
256 1 0.0416561 0.625074 0.231532
257 1 0.0732574 0.815452 0.221454
258 1 0.0841198 0.771574 0.223451
259 1 0.0737018 0.570482 0.235131
260 1 0.0629915 0.636001 0.221522
261 1 0.0947799 0.814461 0.210521
262 1 0.105951 0.77795 0.202062
263 1 0.0956957 0.576396 0.220474
264 1 0.0845315 0.633903 0.234095
265 1 0.116637 0.816387 0.195736
266 1 0.127515 0.776854 0.189968
267 1 0.116804 0.576335 0.215986
268 1 0.105979 0.6411 0.21433
269 1 0.138504 0.818741 0.184306
270 1 0.149379 0.77422 0.182816
271 1 0.138236 0.574035 0.211589
272 1 0.127323 0.637533 0.205685
273 1 0.160525 0.81004 0.172907
274 1 0.171287 0.769067 0.185395
275 1 0.160204 0.574082 0.223551
276 1 0.148959 0.637982 0.209815
277 1 0.181887 0.806396 0.181999
278 1 0.192206 0.760259 0.184803
279 1 0.181851 0.566261 0.222942
280 1 0.171188 0.63472 0.21326
281 1 0.20324 0.800276 0.173747
282 1 0.214027 0.75403 0.178762
283 1 0.203155 0.558443 0.217441
284 1 0.192571 0.630105 0.210905
285 1 0.224676 0.792899 0.176593
286 1 0.235612 0.75004 0.177525
287 1 0.224288 0.552401 0.214223
288 1 0.213772 0.618088 0.201992
289 1 0.24652 0.782594 0.170177
290 1 0.25728 0.743725 0.171127
291 1 0.246259 0.548301 0.207211
292 1 0.235487 0.611216 0.197242
293 1 0.268102 0.785437 0.149009
294 1 0.278789 0.740529 0.154801
295 1 0.267648 0.550035 0.211142
296 1 0.256819 0.609947 0.199271
297 1 0.289648 0.777679 0.147824
298 1 0.300479 0.735926 0.156194
299 1 0.28874 0.547287 0.205892
300 1 0.278158 0.609872 0.185348
301 1 0.311262 0.760814 0.126078
302 1 0.321823 0.715329 0.128494
303 1 0.310961 0.534797 0.203659
304 1 0.299878 0.602306 0.186723
305 1 0.332845 0.74609 0.110596
306 1 0.343682 0.704479 0.120414
307 1 0.332295 0.527726 0.207318
308 1 0.32188 0.59013 0.179811
309 1 0.355005 0.729509 0.102806
310 1 0.365998 0.686267 0.120451
311 1 0.353719 0.514398 0.207092
312 1 0.343406 0.584825 0.183149
313 1 0.377333 0.707939 0.105746
314 1 0.3879 0.666962 0.117511
315 1 0.375417 0.500695 0.213473
316 1 0.365471 0.563965 0.181805
317 1 0.398237 0.701828 0.0905679
318 1 0.409375 0.6649 0.118856
319 1 0.397175 0.49905 0.227876
320 1 0.386776 0.550548 0.184903
321 1 0.420684 0.689525 0.101502
322 1 0.431263 0.649324 0.12833
323 1 0.418322 0.478345 0.222398
324 1 0.407954 0.545083 0.193733
325 1 0.442818 0.670877 0.114345
326 1 0.453263 0.630122 0.150735
327 1 0.439869 0.466697 0.244794
328 1 0.430045 0.532963 0.196926
329 1 0.465237 0.64518 0.151247
330 1 0.475794 0.593501 0.180215
331 1 0.461271 0.44946 0.265948
332 1 0.451525 0.509695 0.221367
333 1 0.487654 0.579482 0.185396
334 1 0.499135 0.505796 0.193075
335 1 0.48333 0.424938 0.304203
336 1 0.473932 0.485209 0.248586
337 1 0.511381 0.440488 0.204748
338 1 0.521221 0.394899 0.276095
339 1 0.503932 0.407229 0.387797
340 1 0.495381 0.434188 0.297814
341 1 0.532428 0.377503 0.314983
342 1 0.541846 0.398979 0.40644
343 1 0.523609 0.412168 0.497747
344 1 0.51596 0.414161 0.390819
345 1 0.552388 0.452804 0.445897
346 1 0.55929 0.518236 0.534206
347 1 0.541243 0.475416 0.622432
348 1 0.535485 0.420493 0.511893
349 1 0.567718 0.609926 0.563735
350 1 0.570941 0.712434 0.637578
351 1 0.553253 0.639472 0.715292
352 1 0.551554 0.541931 0.633905
353 1 0.575688 0.839702 0.630576
354 1 0.573131 0.957 0.570507
355 1 0.55817 0.876224 0.720605
356 1 0.561122 0.739335 0.704866
357 1 0.571258 0.98139 0.442512
358 1 0.563433 0.955001 0.351795
359 1 0.551568 0.981583 0.534821
360 1 0.561292 0.959753 0.621442
361 1 0.562693 0.872608 0.251533
362 1 0.555847 0.799024 0.182749
363 1 0.543548 0.902791 0.328543
364 1 0.552457 0.957114 0.400758
365 1 0.555822 0.702499 0.0968465
366 1 0.548659 0.618658 0.0441158
367 1 0.535548 0.757507 0.151132
368 1 0.544821 0.824805 0.219655
369 1 0.547609 0.496273 0.00296808
370 1 0.540264 0.392912 0.0166356
371 1 0.528259 0.571828 0.0137126
372 1 0.537126 0.656052 0.0618355
373 1 0.540278 0.286864 0.0960156
374 1 0.533949 0.221169 0.177266
375 1 0.520808 0.344758 0.0492161
376 1 0.529125 0.43557 0.0168032
377 1 0.534333 0.174181 0.29036
378 1 0.527085 0.138009 0.382611
379 1 0.513468 0.188567 0.220275
380 1 0.522515 0.246528 0.139738
381 1 0.526494 0.118847 0.501475
382 1 0.519871 0.100337 0.601451
383 1 0.506971 0.0870247 0.425786
384 1 0.515722 0.128427 0.341058
385 1 0.519324 0.111839 0.721738
386 1 0.512518 0.126423 0.819454
387 1 0.5002 0.0556119 0.649912
388 1 0.508549 0.0729322 0.561579
389 1 0.512503 0.193817 0.926578
390 1 0.506508 0.289555 0.977465
391 1 0.492865 0.179102 0.83816
392 1 0.501481 0.103947 0.771092
393 1 0.509007 0.415747 0.998653
394 1 0.508565 0.534119 0.951986
395 1 0.494107 0.410647 0.834764
396 1 0.496097 0.288934 0.902738
397 1 0.515495 0.628211 0.917716
398 1 0.520345 0.673458 0.81795
399 1 0.506418 0.560535 0.723381
400 1 0.502091 0.512315 0.836056
401 1 0.529654 0.732953 0.769549
402 1 0.537062 0.740659 0.676862
403 1 0.523281 0.613176 0.603795
404 1 0.516806 0.616164 0.71028
405 1 0.545881 0.794558 0.61926
406 1 0.553558 0.781093 0.537592
407 1 0.54143 0.631759 0.484397
408 1 0.534625 0.651001 0.586226
409 1 0.563552 0.814369 0.500257
410 1 0.573486 0.79071 0.446319
411 1 0.561158 0.639948 0.384066
412 1 0.55219 0.676866 0.460909
413 1 0.583765 0.835057 0.456353
414 1 0.594237 0.800432 0.422352
415 1 0.581927 0.631338 0.335255
416 1 0.572289 0.679225 0.383747
417 1 0.604474 0.840418 0.426137
418 1 0.614718 0.801954 0.390872
419 1 0.603013 0.631794 0.312058
420 1 0.592914 0.685504 0.354411
421 1 0.625443 0.834611 0.401533
422 1 0.635737 0.790286 0.3884
423 1 0.623934 0.614078 0.30169
424 1 0.613815 0.678398 0.335284
425 1 0.646567 0.821896 0.408785
426 1 0.657331 0.781225 0.388838
427 1 0.645167 0.606079 0.296296
428 1 0.634688 0.66835 0.32797
429 1 0.667772 0.811638 0.404332
430 1 0.678143 0.773455 0.383623
431 1 0.666442 0.597404 0.306752
432 1 0.656239 0.655584 0.329399
433 1 0.68912 0.814168 0.390853
434 1 0.699635 0.776737 0.361003
435 1 0.688308 0.59032 0.289991
436 1 0.678008 0.650034 0.327964
437 1 0.710283 0.81443 0.35951
438 1 0.721021 0.777564 0.332633
439 1 0.709806 0.587531 0.269919
440 1 0.699378 0.647908 0.306622
441 1 0.731815 0.815909 0.339225
442 1 0.742406 0.780245 0.324657
443 1 0.731586 0.592389 0.272553
444 1 0.720347 0.6497 0.292474
445 1 0.753468 0.825719 0.329077
446 1 0.764463 0.789998 0.310637
447 1 0.753429 0.594175 0.259376
448 1 0.742693 0.651976 0.282449
449 1 0.775474 0.823253 0.325091
450 1 0.786357 0.787982 0.315151
451 1 0.775091 0.591348 0.256953
452 1 0.764682 0.655178 0.270151
453 1 0.797198 0.824552 0.324459
454 1 0.807903 0.784501 0.309135
455 1 0.796392 0.592462 0.257683
456 1 0.785465 0.652038 0.275971
457 1 0.818161 0.82777 0.304526
458 1 0.829498 0.79028 0.29156
459 1 0.818109 0.587658 0.247034
460 1 0.806943 0.650647 0.269717
461 1 0.840238 0.821504 0.295122
462 1 0.850761 0.775498 0.281305
463 1 0.839695 0.580767 0.252509
464 1 0.828878 0.646861 0.2577
465 1 0.861854 0.814175 0.275901
466 1 0.872598 0.777644 0.270206
467 1 0.861393 0.574118 0.246528
468 1 0.850893 0.640873 0.257418
469 1 0.883452 0.82376 0.264713
470 1 0.894224 0.782031 0.262304
471 1 0.882919 0.577117 0.248472
472 1 0.872355 0.637716 0.258184
473 1 0.904769 0.819541 0.268865
474 1 0.915665 0.779942 0.255158
475 1 0.904537 0.576379 0.252462
476 1 0.893799 0.644035 0.255171
477 1 0.926734 0.823004 0.261614
478 1 0.937144 0.782442 0.254962
479 1 0.92611 0.57546 0.242959
480 1 0.915517 0.643688 0.251218
481 1 0.947797 0.81867 0.250381
482 1 0.958383 0.775299 0.248058
483 1 0.947732 0.574727 0.239054
484 1 0.937201 0.64098 0.243184
485 1 0.968974 0.816112 0.245484
486 1 0.979561 0.777967 0.240907
487 1 0.969173 0.574866 0.239802
488 1 0.958505 0.64002 0.242351
489 1 0.990182 0.437636 0.238473
490 1 0.999961 0.372529 0.238392
491 1 0.990047 0.176497 0.238246
492 1 0.980222 0.241305 0.238378
493 1 0.990118 0.828558 0.238495
494 1 0.999951 0.765429 0.238511
495 1 0.990002 0.567786 0.23847
496 1 0.980223 0.634617 0.238557
