ITEM: TIMESTEP
60000
ITEM: NUMBER OF ATOMS
736
ITEM: BOX BOUNDS ss ss ss
-0.0156116 202.717
2.77286 13.6425
0.00723357 11.2371
ITEM: ATOMS id type xs ys zs
1 1 0.00620869 0.37245 0.21798
2 1 0.0122131 0.305724 0.217994
3 1 0.00613164 0.111917 0.217994
4 1 9.9405e-05 0.174974 0.217978
5 1 0.00618046 0.763654 0.217991
6 1 0.0122075 0.698861 0.21796
7 1 0.00609701 0.502552 0.217987
8 1 0.000102847 0.567649 0.217984
9 1 0.0189855 0.366662 0.218459
10 1 0.0255382 0.302742 0.220306
11 1 0.0191181 0.125033 0.221299
12 1 0.0125928 0.162915 0.218857
13 1 0.0319907 0.365392 0.225958
14 1 0.0385202 0.306602 0.235195
15 1 0.0320896 0.128601 0.249419
16 1 0.025596 0.16628 0.222899
17 1 0.045178 0.37034 0.233455
18 1 0.0519928 0.304307 0.242736
19 1 0.0452914 0.12756 0.262929
20 1 0.0388286 0.169804 0.253486
21 1 0.0582988 0.36935 0.240592
22 1 0.0647376 0.308629 0.244766
23 1 0.0584209 0.136515 0.268718
24 1 0.0519002 0.167889 0.259607
25 1 0.0712864 0.372905 0.241902
26 1 0.0777191 0.311509 0.25427
27 1 0.0714428 0.12908 0.271592
28 1 0.0649335 0.173461 0.264893
29 1 0.0845689 0.373416 0.247877
30 1 0.0909212 0.314931 0.258999
31 1 0.084308 0.135151 0.272899
32 1 0.0778557 0.174454 0.259209
33 1 0.097418 0.372473 0.252891
34 1 0.104084 0.30727 0.268423
35 1 0.0974003 0.14185 0.289183
36 1 0.0909437 0.177683 0.270882
37 1 0.110808 0.374589 0.266352
38 1 0.117369 0.307886 0.284036
39 1 0.110515 0.13653 0.310101
40 1 0.104113 0.174619 0.289735
41 1 0.123726 0.367516 0.26972
42 1 0.130391 0.301745 0.276184
43 1 0.123708 0.136962 0.329235
44 1 0.117054 0.177592 0.319697
45 1 0.136803 0.361516 0.262168
46 1 0.143123 0.292039 0.276263
47 1 0.136554 0.130229 0.338104
48 1 0.130132 0.174368 0.316396
49 1 0.150227 0.347143 0.251995
50 1 0.156719 0.283265 0.276356
51 1 0.149886 0.124166 0.344295
52 1 0.143427 0.164412 0.327596
53 1 0.163333 0.342418 0.246365
54 1 0.169851 0.285672 0.263425
55 1 0.162997 0.120806 0.335354
56 1 0.156492 0.162996 0.329976
57 1 0.17636 0.341275 0.236817
58 1 0.182925 0.276561 0.255335
59 1 0.17625 0.114922 0.323435
60 1 0.169758 0.15347 0.310384
61 1 0.189718 0.337284 0.237312
62 1 0.196238 0.278898 0.261262
63 1 0.189395 0.114061 0.326245
64 1 0.18283 0.152278 0.306371
65 1 0.202649 0.33913 0.249912
66 1 0.209349 0.28988 0.270596
67 1 0.202982 0.119396 0.329434
68 1 0.196038 0.154904 0.317014
69 1 0.215788 0.344896 0.24318
70 1 0.222247 0.290411 0.26834
71 1 0.215849 0.123711 0.326868
72 1 0.209402 0.159226 0.318584
73 1 0.228627 0.346508 0.240182
74 1 0.235172 0.283932 0.259788
75 1 0.228662 0.123267 0.329264
76 1 0.222329 0.160995 0.311338
77 1 0.241841 0.347663 0.229685
78 1 0.248397 0.287919 0.25686
79 1 0.241867 0.119281 0.325307
80 1 0.235251 0.157954 0.311944
81 1 0.254915 0.348995 0.236655
82 1 0.261655 0.293156 0.267725
83 1 0.255164 0.126032 0.330554
84 1 0.248596 0.159442 0.311095
85 1 0.268087 0.350065 0.240644
86 1 0.274819 0.295398 0.270934
87 1 0.268301 0.134122 0.339782
88 1 0.26169 0.167648 0.321875
89 1 0.281332 0.354588 0.245833
90 1 0.287757 0.298567 0.282807
91 1 0.281479 0.134366 0.347482
92 1 0.274913 0.175145 0.335815
93 1 0.294345 0.356731 0.251866
94 1 0.300788 0.304938 0.287109
95 1 0.294808 0.139902 0.348815
96 1 0.288146 0.171374 0.334246
97 1 0.307425 0.369725 0.25494
98 1 0.314073 0.320988 0.285543
99 1 0.307919 0.152552 0.361234
100 1 0.30136 0.179644 0.340206
101 1 0.320454 0.380584 0.259679
102 1 0.327041 0.323219 0.294732
103 1 0.320601 0.167498 0.374887
104 1 0.314079 0.198609 0.348473
105 1 0.333567 0.389667 0.275659
106 1 0.340105 0.336036 0.308461
107 1 0.333588 0.17092 0.383589
108 1 0.326935 0.201202 0.358371
109 1 0.346584 0.390518 0.284254
110 1 0.353117 0.337435 0.311743
111 1 0.346746 0.179255 0.381601
112 1 0.34001 0.211598 0.366746
113 1 0.359612 0.396566 0.284926
114 1 0.366195 0.336561 0.311609
115 1 0.359543 0.177382 0.396348
116 1 0.353296 0.2161 0.371333
117 1 0.372667 0.39 0.273506
118 1 0.379046 0.336578 0.298847
119 1 0.372669 0.180711 0.392654
120 1 0.366 0.214713 0.378825
121 1 0.385832 0.393094 0.269761
122 1 0.392206 0.336425 0.296607
123 1 0.385651 0.174168 0.382285
124 1 0.379094 0.218045 0.369003
125 1 0.398797 0.394121 0.273138
126 1 0.405036 0.333013 0.299551
127 1 0.39851 0.168494 0.358488
128 1 0.391964 0.20749 0.355272
129 1 0.411686 0.391726 0.273348
130 1 0.418036 0.32772 0.30202
131 1 0.411165 0.161638 0.359201
132 1 0.404799 0.206596 0.342781
133 1 0.424869 0.379789 0.284394
134 1 0.430925 0.317233 0.313756
135 1 0.424121 0.152033 0.36397
136 1 0.417649 0.195259 0.349942
137 1 0.437419 0.374263 0.294604
138 1 0.443758 0.319809 0.336474
139 1 0.436821 0.150884 0.377086
140 1 0.430539 0.189053 0.358441
141 1 0.450038 0.381625 0.339838
142 1 0.455791 0.330781 0.38964
143 1 0.449663 0.156622 0.402531
144 1 0.443173 0.188537 0.374245
145 1 0.462485 0.380707 0.398547
146 1 0.468003 0.340567 0.4691
147 1 0.461998 0.182286 0.463599
148 1 0.455886 0.205195 0.412558
149 1 0.474457 0.390794 0.497745
150 1 0.478687 0.371562 0.589528
151 1 0.47266 0.213701 0.598764
152 1 0.467686 0.224045 0.519133
153 1 0.485356 0.413712 0.60666
154 1 0.489442 0.40865 0.715455
155 1 0.482278 0.268318 0.758713
156 1 0.477849 0.262714 0.667742
157 1 0.495756 0.462866 0.730037
158 1 0.498813 0.502767 0.843121
159 1 0.490889 0.377493 0.90984
160 1 0.487618 0.327902 0.812619
161 1 0.503733 0.597519 0.846964
162 1 0.502447 0.713399 0.911175
163 1 0.494887 0.585883 1.01435
164 1 0.495136 0.471897 0.951879
165 1 0.504521 0.830149 0.854715
166 1 0.499246 0.89666 0.794087
167 1 0.492381 0.808359 0.947494
168 1 0.496202 0.710842 0.991752
169 1 0.499973 0.94196 0.667672
170 1 0.494498 0.925152 0.577582
171 1 0.488068 0.894391 0.745565
172 1 0.492228 0.877364 0.846659
173 1 0.495573 0.906717 0.449229
174 1 0.49029 0.871192 0.360468
175 1 0.483531 0.876597 0.528158
176 1 0.487872 0.898193 0.625113
177 1 0.491623 0.815528 0.240432
178 1 0.486488 0.759204 0.16181
179 1 0.479537 0.82452 0.31379
180 1 0.483512 0.867671 0.402889
181 1 0.488399 0.67307 0.0660793
182 1 0.483194 0.581323 0.0179602
183 1 0.475414 0.710986 0.117512
184 1 0.479321 0.772243 0.199036
185 1 0.483993 0.448203 0.0162866
186 1 0.478534 0.352538 0.0470199
187 1 0.472264 0.508658 -0.00114164
188 1 0.476083 0.617801 0.0244964
189 1 0.479832 0.258899 0.138629
190 1 0.474374 0.194278 0.201114
191 1 0.467642 0.296466 0.0770497
192 1 0.471825 0.385733 0.0240501
193 1 0.475204 0.117385 0.308619
194 1 0.469598 0.0503906 0.377627
195 1 0.463282 0.122299 0.224573
196 1 0.467375 0.198356 0.156383
197 1 0.470033 0.0271888 0.508779
198 1 0.464067 0.0421043 0.58931
199 1 0.457875 0.0117472 0.414157
200 1 0.462658 0.0492924 0.325772
201 1 0.465388 0.123498 0.69811
202 1 0.463059 0.253111 0.693266
203 1 0.454378 0.159039 0.592233
204 1 0.456716 0.0350182 0.539308
205 1 0.467406 0.356871 0.724913
206 1 0.468329 0.466064 0.646543
207 1 0.458079 0.399025 0.568852
208 1 0.457189 0.276469 0.620225
209 1 0.474345 0.539821 0.639437
210 1 0.477465 0.583928 0.527588
211 1 0.466839 0.566782 0.467802
212 1 0.463277 0.490962 0.553711
213 1 0.484776 0.612427 0.513259
214 1 0.488897 0.612195 0.403136
215 1 0.478266 0.617586 0.325757
216 1 0.473284 0.606965 0.425643
217 1 0.496332 0.623793 0.394822
218 1 0.501657 0.599239 0.301608
219 1 0.491569 0.574256 0.21675
220 1 0.485296 0.611189 0.290333
221 1 0.508921 0.607753 0.304579
222 1 0.514781 0.542561 0.249947
223 1 0.505685 0.453458 0.196359
224 1 0.498701 0.531729 0.201681
225 1 0.521759 0.572756 0.269771
226 1 0.52773 0.507435 0.225322
227 1 0.519479 0.386942 0.133213
228 1 0.512681 0.435843 0.167884
229 1 0.535196 0.539771 0.259901
230 1 0.541091 0.475117 0.221703
231 1 0.533191 0.358625 0.114445
232 1 0.526653 0.400342 0.146526
233 1 0.548136 0.513756 0.250535
234 1 0.554517 0.452696 0.208799
235 1 0.546936 0.336027 0.0984594
236 1 0.540363 0.375761 0.127311
237 1 0.561423 0.496684 0.241234
238 1 0.567565 0.441483 0.191221
239 1 0.560374 0.309063 0.0943249
240 1 0.553806 0.347264 0.122531
241 1 0.574591 0.477424 0.229878
242 1 0.580915 0.416633 0.192484
243 1 0.573913 0.288152 0.0940533
244 1 0.567202 0.332485 0.113312
245 1 0.587819 0.457632 0.235635
246 1 0.59423 0.396318 0.203306
247 1 0.586775 0.26176 0.103015
248 1 0.580597 0.30878 0.120676
249 1 0.601058 0.441206 0.237795
250 1 0.607268 0.376148 0.210653
251 1 0.600079 0.2332 0.10867
252 1 0.593776 0.279941 0.132183
253 1 0.613878 0.426769 0.240092
254 1 0.620608 0.363008 0.213882
255 1 0.613277 0.23346 0.110762
256 1 0.606604 0.262911 0.131458
257 1 0.626942 0.415403 0.239201
258 1 0.633668 0.361194 0.205304
259 1 0.626501 0.213081 0.117902
260 1 0.619926 0.251236 0.138863
261 1 0.640212 0.416183 0.226511
262 1 0.646281 0.360949 0.190162
263 1 0.639504 0.19263 0.118193
264 1 0.633026 0.24013 0.141026
265 1 0.653145 0.407513 0.207529
266 1 0.659457 0.340925 0.180739
267 1 0.652503 0.1822 0.123685
268 1 0.646178 0.22937 0.13926
269 1 0.666296 0.396785 0.191451
270 1 0.672633 0.331663 0.173945
271 1 0.665357 0.167935 0.122647
272 1 0.659016 0.213061 0.138775
273 1 0.679275 0.391076 0.189132
274 1 0.685536 0.317328 0.169889
275 1 0.678416 0.153154 0.126588
276 1 0.672074 0.200078 0.136155
277 1 0.692279 0.372048 0.18019
278 1 0.698855 0.302483 0.163162
279 1 0.69161 0.135947 0.132586
280 1 0.685149 0.183296 0.141141
281 1 0.705543 0.362666 0.173456
282 1 0.712219 0.292791 0.166115
283 1 0.705294 0.123586 0.132006
284 1 0.698555 0.167396 0.139676
285 1 0.718699 0.356005 0.171966
286 1 0.725202 0.288293 0.151679
287 1 0.718238 0.114571 0.125898
288 1 0.711883 0.157661 0.141346
289 1 0.732173 0.350509 0.176881
290 1 0.738457 0.28167 0.168876
291 1 0.731476 0.105119 0.127099
292 1 0.724911 0.150651 0.125034
293 1 0.744985 0.340931 0.1817
294 1 0.751585 0.273241 0.173289
295 1 0.744514 0.102034 0.138824
296 1 0.738091 0.1468 0.141793
297 1 0.758108 0.333768 0.180373
298 1 0.764492 0.271473 0.167007
299 1 0.757808 0.100079 0.142473
300 1 0.75097 0.140698 0.145807
301 1 0.771249 0.327029 0.191461
302 1 0.777604 0.259236 0.187974
303 1 0.770726 0.0986035 0.149248
304 1 0.764367 0.13912 0.147927
305 1 0.783955 0.320774 0.200944
306 1 0.790821 0.257862 0.189867
307 1 0.783997 0.0844184 0.144269
308 1 0.77742 0.12429 0.157289
309 1 0.797289 0.319797 0.209357
310 1 0.803966 0.25831 0.190585
311 1 0.797089 0.083496 0.147092
312 1 0.790469 0.123116 0.157552
313 1 0.810348 0.314073 0.215852
314 1 0.816943 0.255166 0.193406
315 1 0.81047 0.0831474 0.159097
316 1 0.803745 0.121634 0.159923
317 1 0.8235 0.31676 0.206202
318 1 0.830127 0.257355 0.196149
319 1 0.823649 0.0888901 0.159788
320 1 0.817121 0.122958 0.166945
321 1 0.836741 0.322077 0.203212
322 1 0.843217 0.256695 0.187909
323 1 0.83679 0.0801676 0.174449
324 1 0.830193 0.119449 0.173552
325 1 0.849688 0.324084 0.193233
326 1 0.856546 0.26539 0.197619
327 1 0.850078 0.0832387 0.179215
328 1 0.843471 0.121535 0.184581
329 1 0.862993 0.328046 0.209539
330 1 0.869777 0.274063 0.217805
331 1 0.863028 0.0898745 0.198561
332 1 0.856596 0.129049 0.188751
333 1 0.876131 0.343461 0.205984
334 1 0.882741 0.280225 0.195206
335 1 0.876693 0.101318 0.211309
336 1 0.870089 0.135827 0.210924
337 1 0.889032 0.347996 0.194509
338 1 0.895821 0.288699 0.201097
339 1 0.889631 0.106092 0.202442
340 1 0.88307 0.146081 0.203306
341 1 0.902204 0.35257 0.193161
342 1 0.908942 0.295439 0.194862
343 1 0.902668 0.11417 0.206852
344 1 0.896061 0.152651 0.204304
345 1 0.915353 0.362305 0.191537
346 1 0.921797 0.297077 0.204626
347 1 0.915374 0.121249 0.208618
348 1 0.90885 0.163493 0.209615
349 1 0.928425 0.357814 0.208643
350 1 0.934758 0.293534 0.21398
351 1 0.928421 0.115164 0.214626
352 1 0.921903 0.161095 0.207134
353 1 0.941364 0.362238 0.210477
354 1 0.948148 0.298569 0.202736
355 1 0.941741 0.120267 0.215225
356 1 0.935028 0.157463 0.217555
357 1 0.954467 0.360863 0.209078
358 1 0.961195 0.299139 0.207281
359 1 0.954924 0.128667 0.215111
360 1 0.948203 0.165415 0.209323
361 1 0.967626 0.364726 0.211753
362 1 0.974411 0.302816 0.212196
363 1 0.968269 0.126767 0.20359
364 1 0.961598 0.160245 0.208694
365 1 0.980916 0.369724 0.215977
366 1 0.987529 0.308853 0.217664
367 1 0.981226 0.133221 0.214789
368 1 0.974568 0.166588 0.210173
369 1 0.0189136 0.737496 0.215892
370 1 0.0255422 0.699733 0.214146
371 1 0.0190027 0.500782 0.217574
372 1 0.0124821 0.564748 0.21803
373 1 0.0319596 0.739199 0.205354
374 1 0.0384943 0.704447 0.203836
375 1 0.0322905 0.498128 0.220319
376 1 0.0255723 0.563469 0.216244
377 1 0.0452043 0.745548 0.208161
378 1 0.051828 0.707801 0.213686
379 1 0.0452903 0.507617 0.223852
380 1 0.0389645 0.568806 0.212782
381 1 0.0585027 0.749224 0.211342
382 1 0.0651794 0.708917 0.213119
383 1 0.0582663 0.507568 0.225549
384 1 0.051921 0.570501 0.2203
385 1 0.0716269 0.742002 0.212071
386 1 0.0781536 0.7001 0.204417
387 1 0.0714524 0.504558 0.229487
388 1 0.0648043 0.57186 0.221709
389 1 0.0845966 0.738159 0.190015
390 1 0.0911259 0.702119 0.190518
391 1 0.0845927 0.508051 0.230909
392 1 0.078044 0.568117 0.230728
393 1 0.0977897 0.739178 0.18069
394 1 0.104398 0.702178 0.193345
395 1 0.0977761 0.503634 0.237205
396 1 0.0912038 0.569434 0.219169
397 1 0.110886 0.735351 0.179991
398 1 0.11731 0.696622 0.185862
399 1 0.110806 0.505478 0.237026
400 1 0.104076 0.568926 0.224634
401 1 0.124088 0.729419 0.177338
402 1 0.1306 0.680674 0.17498
403 1 0.123826 0.497033 0.231257
404 1 0.117428 0.563175 0.2217
405 1 0.136998 0.714931 0.153548
406 1 0.143551 0.67584 0.160844
407 1 0.136865 0.489 0.228007
408 1 0.130509 0.551346 0.210718
409 1 0.150257 0.705669 0.134795
410 1 0.156906 0.666893 0.146863
411 1 0.150056 0.474764 0.211105
412 1 0.143531 0.542584 0.204478
413 1 0.163686 0.699798 0.135149
414 1 0.170056 0.657187 0.13348
415 1 0.163248 0.468074 0.196264
416 1 0.1566 0.532034 0.182584
417 1 0.176178 0.699241 0.121374
418 1 0.182847 0.659141 0.134428
419 1 0.176192 0.469071 0.193031
420 1 0.169761 0.529114 0.173355
421 1 0.189688 0.696577 0.126403
422 1 0.196108 0.653914 0.136339
423 1 0.189593 0.466972 0.194813
424 1 0.182807 0.524289 0.175618
425 1 0.202335 0.697065 0.125754
426 1 0.208884 0.65334 0.133411
427 1 0.20248 0.465818 0.201958
428 1 0.195885 0.525004 0.173517
429 1 0.21523 0.695867 0.123154
430 1 0.22202 0.658727 0.129222
431 1 0.215741 0.46686 0.196061
432 1 0.209011 0.525525 0.181164
433 1 0.228618 0.697919 0.118195
434 1 0.235471 0.66081 0.130565
435 1 0.228563 0.474688 0.196191
436 1 0.22213 0.527637 0.179033
437 1 0.241903 0.686533 0.0972328
438 1 0.248352 0.64864 0.105089
439 1 0.241883 0.472593 0.183735
440 1 0.235162 0.533559 0.175152
441 1 0.254844 0.686019 0.0806873
442 1 0.261355 0.650141 0.0919434
443 1 0.255075 0.470399 0.180193
444 1 0.248404 0.531898 0.158637
445 1 0.268059 0.67425 0.0606758
446 1 0.274646 0.639332 0.086943
447 1 0.268165 0.470418 0.184361
448 1 0.261703 0.52469 0.15552
449 1 0.281079 0.684493 0.0747564
450 1 0.287837 0.654938 0.0926302
451 1 0.28111 0.472131 0.185262
452 1 0.274629 0.522478 0.153925
453 1 0.294301 0.69439 0.0787673
454 1 0.301029 0.665518 0.104218
455 1 0.294143 0.47447 0.182166
456 1 0.287544 0.530074 0.154174
457 1 0.307574 0.705825 0.0953355
458 1 0.314113 0.680126 0.119159
459 1 0.307232 0.489515 0.199326
460 1 0.30067 0.542074 0.160182
461 1 0.320714 0.713499 0.101088
462 1 0.327222 0.680321 0.117633
463 1 0.320572 0.497633 0.20564
464 1 0.313674 0.551553 0.176437
465 1 0.333771 0.719494 0.111641
466 1 0.340403 0.688332 0.136073
467 1 0.333486 0.507763 0.218048
468 1 0.326767 0.56307 0.180507
469 1 0.346742 0.727756 0.12247
470 1 0.353274 0.691403 0.140109
471 1 0.34672 0.507899 0.224431
472 1 0.340055 0.561153 0.186942
473 1 0.359617 0.729326 0.118215
474 1 0.366348 0.696129 0.131184
475 1 0.359647 0.514136 0.223998
476 1 0.352916 0.570952 0.198248
477 1 0.372916 0.727745 0.109976
478 1 0.379402 0.691955 0.124712
479 1 0.372544 0.507164 0.20656
480 1 0.366055 0.569471 0.18738
481 1 0.386115 0.72138 0.107578
482 1 0.392695 0.682404 0.118442
483 1 0.385909 0.512214 0.206078
484 1 0.379076 0.571471 0.181528
485 1 0.399169 0.725476 0.0986067
486 1 0.406042 0.687873 0.112166
487 1 0.399217 0.515478 0.221344
488 1 0.39257 0.565865 0.185172
489 1 0.412823 0.708667 0.0880373
490 1 0.419557 0.672648 0.105143
491 1 0.41216 0.513892 0.222092
492 1 0.405778 0.569605 0.187466
493 1 0.426505 0.697777 0.088747
494 1 0.433052 0.655918 0.112985
495 1 0.425379 0.500055 0.226041
496 1 0.419023 0.560857 0.189771
497 1 0.439666 0.683011 0.100474
498 1 0.446251 0.64476 0.134862
499 1 0.438417 0.490618 0.236987
500 1 0.43222 0.554024 0.196027
501 1 0.45326 0.657056 0.114765
502 1 0.459976 0.60891 0.156843
503 1 0.451252 0.495415 0.277308
504 1 0.44523 0.547631 0.221112
505 1 0.467118 0.595868 0.143844
506 1 0.473348 0.526775 0.186837
507 1 0.463915 0.468809 0.314949
508 1 0.458309 0.528487 0.258116
509 1 0.48025 0.472909 0.198168
510 1 0.485913 0.420409 0.265174
511 1 0.476714 0.429365 0.387942
512 1 0.471398 0.468251 0.299207
513 1 0.493328 0.402284 0.302073
514 1 0.498597 0.433016 0.393669
515 1 0.488491 0.432962 0.498866
516 1 0.484298 0.431168 0.394941
517 1 0.50519 0.480309 0.434169
518 1 0.509772 0.533036 0.522533
519 1 0.499245 0.482582 0.618155
520 1 0.495766 0.449279 0.510432
521 1 0.515491 0.60604 0.563528
522 1 0.518032 0.686626 0.654949
523 1 0.508004 0.599155 0.74377
524 1 0.505798 0.535446 0.633121
525 1 0.521575 0.804741 0.668495
526 1 0.519886 0.937577 0.654509
527 1 0.51083 0.831951 0.789151
528 1 0.512674 0.707852 0.740111
529 1 0.518585 0.996893 0.548278
530 1 0.514487 0.987715 0.448599
531 1 0.506955 0.972576 0.629174
532 1 0.512615 0.935245 0.713149
533 1 0.514186 0.922998 0.342582
534 1 0.51059 0.845158 0.263804
535 1 0.502328 0.916906 0.411275
536 1 0.50768 0.977813 0.497912
537 1 0.511046 0.751929 0.18321
538 1 0.507312 0.680899 0.10528
539 1 0.498791 0.797896 0.215658
540 1 0.503713 0.860496 0.295111
541 1 0.507145 0.56469 0.0457214
542 1 0.503357 0.458211 0.0140996
543 1 0.494959 0.634739 0.0497755
544 1 0.500119 0.7095 0.120018
545 1 0.502611 0.336758 0.0580207
546 1 0.498605 0.263877 0.133633
547 1 0.490845 0.411898 0.0406981
548 1 0.496396 0.504645 0.0220944
549 1 0.498264 0.191771 0.237946
550 1 0.494323 0.143603 0.331009
551 1 0.4865 0.241477 0.180668
552 1 0.491747 0.304229 0.118132
553 1 0.493481 0.0995502 0.450092
554 1 0.488794 0.0698914 0.538118
555 1 0.481778 0.111653 0.362809
556 1 0.48722 0.162414 0.290581
557 1 0.488086 0.0566711 0.662332
558 1 0.48341 0.050339 0.751426
559 1 0.476617 0.032558 0.565762
560 1 0.482166 0.0643011 0.485666
561 1 0.483301 0.104969 0.863558
562 1 0.479657 0.197665 0.927404
563 1 0.471745 0.11242 0.762568
564 1 0.476984 0.0509398 0.695762
565 1 0.481463 0.313788 0.970102
566 1 0.481208 0.436623 0.941021
567 1 0.472028 0.340428 0.817682
568 1 0.473606 0.210112 0.846774
569 1 0.485481 0.540961 0.936678
570 1 0.488389 0.610186 0.849293
571 1 0.478665 0.528662 0.743855
572 1 0.476597 0.446514 0.8425
573 1 0.493899 0.6718 0.813604
574 1 0.497742 0.699813 0.721735
575 1 0.488486 0.613137 0.623955
576 1 0.485174 0.584349 0.736912
577 1 0.503255 0.759003 0.68132
578 1 0.507567 0.781361 0.591232
579 1 0.499064 0.6675 0.50575
580 1 0.495044 0.657831 0.609725
581 1 0.513342 0.828329 0.557724
582 1 0.518909 0.814594 0.4879
583 1 0.51069 0.68518 0.40493
584 1 0.505744 0.715685 0.491593
585 1 0.525244 0.850738 0.49177
586 1 0.531513 0.816633 0.453996
587 1 0.523263 0.67025 0.348974
588 1 0.517322 0.720251 0.407957
589 1 0.537994 0.84016 0.470635
590 1 0.544162 0.801597 0.439317
591 1 0.536058 0.65011 0.33293
592 1 0.529874 0.707657 0.377883
593 1 0.55072 0.821499 0.454894
594 1 0.556857 0.772842 0.430371
595 1 0.549058 0.622918 0.325172
596 1 0.542981 0.693599 0.363309
597 1 0.563397 0.796743 0.451416
598 1 0.569618 0.756721 0.432387
599 1 0.562091 0.60639 0.318083
600 1 0.555852 0.664163 0.357699
601 1 0.5761 0.780849 0.453287
602 1 0.582435 0.738413 0.424561
603 1 0.575276 0.581182 0.317902
604 1 0.568886 0.643724 0.362557
605 1 0.588998 0.768058 0.440001
606 1 0.595657 0.731963 0.409068
607 1 0.588348 0.569124 0.309683
608 1 0.581732 0.621281 0.355181
609 1 0.602166 0.754317 0.430941
610 1 0.608342 0.718943 0.397863
611 1 0.601285 0.555871 0.307594
612 1 0.595013 0.616073 0.336058
613 1 0.614764 0.751886 0.411892
614 1 0.621288 0.723729 0.380071
615 1 0.614285 0.54699 0.301615
616 1 0.607987 0.606075 0.331565
617 1 0.627865 0.76775 0.376244
618 1 0.634331 0.728311 0.359154
619 1 0.627596 0.539879 0.287114
620 1 0.621255 0.597783 0.319318
621 1 0.641038 0.765873 0.354591
622 1 0.647455 0.728642 0.326136
623 1 0.640749 0.542188 0.27426
624 1 0.634273 0.598328 0.308082
625 1 0.654227 0.765154 0.318549
626 1 0.660775 0.728124 0.290358
627 1 0.653585 0.540885 0.253526
628 1 0.647298 0.602713 0.28512
629 1 0.667615 0.761411 0.290739
630 1 0.674118 0.711483 0.275567
631 1 0.666901 0.524634 0.234389
632 1 0.660481 0.594855 0.259797
633 1 0.680717 0.750575 0.287861
634 1 0.687018 0.703193 0.273709
635 1 0.679958 0.51776 0.221535
636 1 0.673784 0.580842 0.247113
637 1 0.69395 0.731418 0.281026
638 1 0.700247 0.688489 0.265256
639 1 0.693077 0.500647 0.216068
640 1 0.686666 0.570851 0.245115
641 1 0.706794 0.722413 0.274722
642 1 0.713097 0.685377 0.255875
643 1 0.70589 0.490036 0.207627
644 1 0.699754 0.552992 0.226707
645 1 0.719608 0.7223 0.268033
646 1 0.725975 0.679157 0.252733
647 1 0.719006 0.485051 0.20231
648 1 0.712482 0.548879 0.222056
649 1 0.732658 0.711366 0.254667
650 1 0.738895 0.663507 0.255307
651 1 0.732231 0.478696 0.210377
652 1 0.725708 0.54721 0.22588
653 1 0.745369 0.698507 0.272342
654 1 0.751879 0.658944 0.267916
655 1 0.745114 0.467654 0.2164
656 1 0.738944 0.532565 0.227067
657 1 0.758378 0.696176 0.285767
658 1 0.764888 0.654258 0.28106
659 1 0.75824 0.466528 0.215464
660 1 0.751685 0.527819 0.236587
661 1 0.771482 0.691043 0.283982
662 1 0.777939 0.652208 0.27453
663 1 0.771206 0.459116 0.225052
664 1 0.764825 0.524394 0.239963
665 1 0.784635 0.687481 0.282972
666 1 0.791032 0.647986 0.2685
667 1 0.783983 0.451299 0.225021
668 1 0.777948 0.518564 0.242474
669 1 0.797466 0.689958 0.272736
670 1 0.803936 0.646115 0.265734
671 1 0.797444 0.447199 0.234794
672 1 0.790975 0.513252 0.246992
673 1 0.810531 0.687938 0.261545
674 1 0.816846 0.641672 0.252522
675 1 0.810564 0.447022 0.237406
676 1 0.803889 0.510134 0.248626
677 1 0.823525 0.683703 0.248937
678 1 0.830011 0.649579 0.250416
679 1 0.823622 0.44906 0.224695
680 1 0.817133 0.5065 0.240754
681 1 0.836374 0.693886 0.247
682 1 0.842873 0.658044 0.231868
683 1 0.836947 0.454881 0.222892
684 1 0.830416 0.513095 0.23764
685 1 0.849224 0.705245 0.234858
686 1 0.855908 0.665482 0.221728
687 1 0.849894 0.458713 0.202089
688 1 0.843426 0.520871 0.219831
689 1 0.862468 0.705661 0.213132
690 1 0.869104 0.664124 0.196136
691 1 0.862786 0.46148 0.198937
692 1 0.856494 0.524051 0.196281
693 1 0.875608 0.707693 0.180672
694 1 0.882406 0.681483 0.175452
695 1 0.875722 0.475293 0.189346
696 1 0.869299 0.530862 0.197446
697 1 0.888838 0.723502 0.176703
698 1 0.895491 0.686164 0.174846
699 1 0.889137 0.479685 0.186322
700 1 0.882227 0.542099 0.184675
701 1 0.901858 0.729604 0.170767
702 1 0.908366 0.689132 0.184556
703 1 0.902004 0.490038 0.192229
704 1 0.89547 0.548718 0.183432
705 1 0.914927 0.734342 0.190306
706 1 0.92137 0.691385 0.197114
707 1 0.915075 0.495392 0.187802
708 1 0.908425 0.553429 0.187508
709 1 0.928044 0.735289 0.205247
710 1 0.934634 0.697522 0.209084
711 1 0.928233 0.491366 0.194032
712 1 0.921721 0.553299 0.192079
713 1 0.941358 0.740011 0.216859
714 1 0.947898 0.69543 0.221785
715 1 0.94149 0.495421 0.210919
716 1 0.934819 0.55796 0.198165
717 1 0.954205 0.739703 0.221115
718 1 0.960601 0.699404 0.224228
719 1 0.954376 0.499262 0.214316
720 1 0.947912 0.556264 0.216659
721 1 0.967204 0.741234 0.224
722 1 0.973846 0.700049 0.221976
723 1 0.967604 0.4993 0.213605
724 1 0.960983 0.562131 0.215706
725 1 0.980426 0.744315 0.222216
726 1 0.987194 0.711692 0.219591
727 1 0.980854 0.504263 0.217499
728 1 0.974067 0.563146 0.218031
729 1 0.993918 0.371875 0.217982
730 1 0.999913 0.30679 0.217984
731 1 0.993838 0.110801 0.217992
732 1 0.987812 0.17549 0.21795
733 1 0.993874 0.76252 0.218011
734 1 0.999914 0.699435 0.217976
735 1 0.993807 0.502008 0.217982
736 1 0.987794 0.56859 0.217997
