ITEM: TIMESTEP
500000
ITEM: NUMBER OF ATOMS
736
ITEM: BOX BOUNDS ss ss ss
-0.0156116 201.511
1.6222 12.2824
0.060733 11.5283
ITEM: ATOMS id type xs ys zs
1 1 0.00624585 0.487707 0.208797
2 1 0.0122862 0.41967 0.208811
3 1 0.00616834 0.222055 0.208811
4 1 0.0001 0.286351 0.208795
5 1 0.00621745 0.886596 0.208808
6 1 0.0122806 0.820531 0.208777
7 1 0.0061335 0.620365 0.208804
8 1 0.000103463 0.686741 0.208801
9 1 0.0190991 0.481805 0.209265
10 1 0.025691 0.416629 0.211074
11 1 0.0192325 0.235429 0.212046
12 1 0.0126682 0.274055 0.209656
13 1 0.0322747 0.483641 0.211601
14 1 0.0390002 0.415569 0.218621
15 1 0.0322419 0.232039 0.220916
16 1 0.0257492 0.277487 0.213614
17 1 0.0458173 0.482953 0.218084
18 1 0.0524375 0.4131 0.213633
19 1 0.0454986 0.235148 0.233171
20 1 0.0389411 0.274671 0.230999
21 1 0.0589386 0.483029 0.208642
22 1 0.0655561 0.417342 0.22616
23 1 0.0588876 0.239237 0.24933
24 1 0.0520333 0.276804 0.231412
25 1 0.0720212 0.478698 0.219367
26 1 0.0786688 0.412243 0.23008
27 1 0.0716716 0.237143 0.25305
28 1 0.0653457 0.282646 0.244462
29 1 0.0852203 0.478239 0.218704
30 1 0.0920679 0.409387 0.228172
31 1 0.0851517 0.23475 0.249583
32 1 0.078469 0.272651 0.248044
33 1 0.0986041 0.476248 0.216612
34 1 0.105336 0.410303 0.22725
35 1 0.0984694 0.23389 0.25568
36 1 0.0918837 0.272082 0.246382
37 1 0.112079 0.479726 0.21815
38 1 0.118705 0.416078 0.228272
39 1 0.112175 0.237887 0.270432
40 1 0.105278 0.275366 0.25919
41 1 0.125364 0.47894 0.21326
42 1 0.132021 0.41075 0.223399
43 1 0.125418 0.243335 0.274561
44 1 0.11861 0.280733 0.26564
45 1 0.138742 0.477077 0.211981
46 1 0.145317 0.412043 0.228264
47 1 0.138546 0.236705 0.267193
48 1 0.132032 0.278386 0.257403
49 1 0.152048 0.474589 0.220434
50 1 0.158708 0.409666 0.243135
51 1 0.151739 0.235715 0.277108
52 1 0.145091 0.273627 0.261984
53 1 0.165339 0.472623 0.226976
54 1 0.171961 0.409103 0.25338
55 1 0.16506 0.229726 0.292678
56 1 0.158377 0.271347 0.275911
57 1 0.178713 0.469859 0.236516
58 1 0.185354 0.404674 0.248254
59 1 0.178608 0.237736 0.298394
60 1 0.171965 0.27383 0.290402
61 1 0.191969 0.462331 0.228774
62 1 0.198575 0.404957 0.250379
63 1 0.191745 0.234985 0.302232
64 1 0.185299 0.271144 0.291693
65 1 0.205004 0.468393 0.236683
66 1 0.211691 0.409053 0.25917
67 1 0.204984 0.237736 0.297507
68 1 0.198285 0.273899 0.292817
69 1 0.218434 0.476707 0.245445
70 1 0.224926 0.417446 0.267737
71 1 0.218353 0.235551 0.303351
72 1 0.211679 0.276345 0.285367
73 1 0.232026 0.472782 0.249366
74 1 0.238669 0.410029 0.278565
75 1 0.231735 0.244751 0.319756
76 1 0.225123 0.277095 0.300794
77 1 0.245168 0.466952 0.257181
78 1 0.25186 0.403188 0.267465
79 1 0.245011 0.240841 0.333555
80 1 0.238156 0.278764 0.317532
81 1 0.258449 0.45779 0.2371
82 1 0.264971 0.397798 0.266801
83 1 0.258301 0.235172 0.333208
84 1 0.251699 0.2752 0.318456
85 1 0.27171 0.457585 0.246343
86 1 0.278162 0.395719 0.262135
87 1 0.271925 0.230094 0.332393
88 1 0.26517 0.270761 0.318704
89 1 0.284651 0.452033 0.22895
90 1 0.291 0.393581 0.249707
91 1 0.285248 0.232106 0.32781
92 1 0.278586 0.268156 0.31584
93 1 0.298035 0.439002 0.216176
94 1 0.304498 0.3882 0.251433
95 1 0.297977 0.226096 0.323723
96 1 0.291648 0.268323 0.304676
97 1 0.311109 0.44576 0.226115
98 1 0.317697 0.390723 0.2617
99 1 0.310958 0.224313 0.342009
100 1 0.304557 0.267621 0.313324
101 1 0.324448 0.449514 0.234502
102 1 0.330892 0.39401 0.264982
103 1 0.324129 0.234131 0.336746
104 1 0.317584 0.267538 0.321645
105 1 0.33778 0.451832 0.244039
106 1 0.344088 0.395441 0.276285
107 1 0.337255 0.236583 0.34806
108 1 0.33076 0.267364 0.320084
109 1 0.350773 0.454463 0.25673
110 1 0.357564 0.397942 0.288613
111 1 0.350631 0.235557 0.360777
112 1 0.344018 0.270747 0.333901
113 1 0.364026 0.450433 0.254851
114 1 0.370313 0.392246 0.29057
115 1 0.363456 0.237299 0.373689
116 1 0.357139 0.272175 0.351052
117 1 0.377036 0.437215 0.254725
118 1 0.383191 0.375163 0.288085
119 1 0.37682 0.230402 0.391699
120 1 0.370332 0.272092 0.365949
121 1 0.390096 0.420418 0.254647
122 1 0.396795 0.363672 0.291805
123 1 0.389706 0.21775 0.380846
124 1 0.383191 0.253499 0.358536
125 1 0.403641 0.410148 0.265655
126 1 0.410119 0.347127 0.302187
127 1 0.402841 0.208816 0.389795
128 1 0.396214 0.247918 0.359875
129 1 0.416884 0.397441 0.285524
130 1 0.42298 0.33526 0.320368
131 1 0.415796 0.190022 0.404465
132 1 0.409402 0.234299 0.376018
133 1 0.42975 0.37663 0.284783
134 1 0.435892 0.314737 0.324094
135 1 0.428688 0.167817 0.41287
136 1 0.422486 0.215981 0.386617
137 1 0.442724 0.359709 0.293283
138 1 0.448669 0.296655 0.337379
139 1 0.441367 0.15867 0.431189
140 1 0.435137 0.198543 0.396161
141 1 0.455764 0.342989 0.321131
142 1 0.461653 0.288822 0.368593
143 1 0.454096 0.154754 0.451402
144 1 0.447872 0.188768 0.414327
145 1 0.46843 0.325781 0.36915
146 1 0.47359 0.298971 0.460487
147 1 0.466204 0.16239 0.507989
148 1 0.460498 0.187971 0.445539
149 1 0.480324 0.340737 0.470936
150 1 0.484387 0.323711 0.574466
151 1 0.476327 0.202369 0.629477
152 1 0.472156 0.20481 0.542459
153 1 0.491077 0.359703 0.576853
154 1 0.494711 0.373367 0.69054
155 1 0.485915 0.265765 0.761811
156 1 0.481817 0.25588 0.67144
157 1 0.501272 0.444067 0.70556
158 1 0.503736 0.488207 0.8167
159 1 0.494815 0.372325 0.893621
160 1 0.49139 0.329665 0.797716
161 1 0.50884 0.582417 0.821077
162 1 0.508511 0.688923 0.9021
163 1 0.500333 0.567418 0.98517
164 1 0.499596 0.459382 0.921497
165 1 0.511582 0.801731 0.856995
166 1 0.507056 0.905857 0.82446
167 1 0.499716 0.802778 0.960529
168 1 0.502864 0.689531 0.982242
169 1 0.508012 0.965633 0.705956
170 1 0.502488 0.975714 0.622346
171 1 0.495605 0.941572 0.787032
172 1 0.500034 0.896901 0.876397
173 1 0.503345 0.95931 0.496713
174 1 0.497598 0.921925 0.414198
175 1 0.491153 0.942184 0.578034
176 1 0.495483 0.961465 0.671303
177 1 0.498838 0.881223 0.29123
178 1 0.493789 0.819992 0.218671
179 1 0.486328 0.88248 0.367125
180 1 0.490568 0.917036 0.458027
181 1 0.495482 0.748578 0.116487
182 1 0.490013 0.681999 0.0551973
183 1 0.483103 0.786999 0.165562
184 1 0.486765 0.837195 0.254271
185 1 0.490864 0.552432 0.00801745
186 1 0.485338 0.455291 0.00539186
187 1 0.479473 0.633511 0.00971201
188 1 0.48328 0.715556 0.0706283
189 1 0.486142 0.326151 0.0576382
190 1 0.480508 0.258647 0.109244
191 1 0.473812 0.408378 0.0219216
192 1 0.478399 0.501851 -0.00882714
193 1 0.481435 0.164773 0.200299
194 1 0.476087 0.100164 0.266563
195 1 0.469053 0.21541 0.140278
196 1 0.473401 0.291971 0.080257
197 1 0.47661 0.0402269 0.38189
198 1 0.471069 -0.00526426 0.456754
199 1 0.464666 0.0661502 0.30498
200 1 0.469162 0.124612 0.226333
201 1 0.471717 0.00739543 0.589283
202 1 0.466133 0.0621004 0.67055
203 1 0.459935 0.00512488 0.512366
204 1 0.463924 -0.00146712 0.413884
205 1 0.468557 0.164457 0.745217
206 1 0.467573 0.292277 0.702578
207 1 0.45846 0.207064 0.62378
208 1 0.459223 0.0740119 0.619195
209 1 0.473206 0.383814 0.701567
210 1 0.475328 0.466423 0.601777
211 1 0.464913 0.413361 0.532953
212 1 0.462162 0.323956 0.612945
213 1 0.482133 0.518629 0.591701
214 1 0.485247 0.560046 0.48478
215 1 0.474332 0.546513 0.413183
216 1 0.470767 0.483123 0.500419
217 1 0.492379 0.59425 0.479971
218 1 0.496681 0.607876 0.37551
219 1 0.48633 0.621016 0.293519
220 1 0.481259 0.59061 0.383254
221 1 0.503887 0.626801 0.380447
222 1 0.509188 0.605359 0.29194
223 1 0.499505 0.574529 0.188384
224 1 0.493532 0.61309 0.257007
225 1 0.516547 0.61026 0.304595
226 1 0.52265 0.549571 0.243347
227 1 0.513692 0.462349 0.162516
228 1 0.507069 0.540013 0.177231
229 1 0.529766 0.57801 0.270682
230 1 0.535921 0.51328 0.230976
231 1 0.527639 0.400894 0.136862
232 1 0.52096 0.450977 0.162884
233 1 0.542877 0.5523 0.254099
234 1 0.549048 0.490484 0.207074
235 1 0.541047 0.360797 0.121392
236 1 0.53449 0.404735 0.156431
237 1 0.556187 0.531177 0.234167
238 1 0.562629 0.466438 0.195661
239 1 0.554977 0.338586 0.100178
240 1 0.54806 0.380214 0.130026
241 1 0.569402 0.51187 0.228242
242 1 0.575595 0.448126 0.186703
243 1 0.568134 0.318006 0.0828742
244 1 0.561972 0.355816 0.116866
245 1 0.582286 0.498486 0.218461
246 1 0.588868 0.436969 0.17888
247 1 0.581759 0.302374 0.0777899
248 1 0.575036 0.343776 0.104489
249 1 0.59622 0.486706 0.20926
250 1 0.602607 0.427856 0.169582
251 1 0.595485 0.281776 0.0766267
252 1 0.58859 0.325022 0.0962659
253 1 0.60941 0.478786 0.202714
254 1 0.615806 0.418962 0.163444
255 1 0.608913 0.27073 0.0698992
256 1 0.602371 0.311151 0.09668
257 1 0.622691 0.472178 0.19485
258 1 0.629217 0.413455 0.151572
259 1 0.622487 0.262846 0.0603662
260 1 0.615759 0.298624 0.0861215
261 1 0.636059 0.465154 0.179098
262 1 0.642501 0.407112 0.147689
263 1 0.635852 0.256587 0.0623904
264 1 0.629241 0.296796 0.0740876
265 1 0.64911 0.465529 0.183536
266 1 0.655751 0.409038 0.15142
267 1 0.649256 0.244797 0.0741899
268 1 0.642578 0.28051 0.0889451
269 1 0.662182 0.463523 0.178693
270 1 0.668742 0.404197 0.148249
271 1 0.662578 0.24398 0.0817205
272 1 0.656112 0.279461 0.0989367
273 1 0.675505 0.458812 0.167188
274 1 0.682302 0.397786 0.1416
275 1 0.67575 0.2405 0.0664755
276 1 0.669301 0.278529 0.0904478
277 1 0.688939 0.44856 0.166969
278 1 0.695633 0.386842 0.14916
279 1 0.688772 0.228286 0.0713036
280 1 0.682275 0.271233 0.0820584
281 1 0.702318 0.441487 0.184466
282 1 0.709254 0.385195 0.155973
283 1 0.702386 0.231225 0.0791162
284 1 0.695604 0.261139 0.0885871
285 1 0.715776 0.442528 0.184828
286 1 0.722341 0.382667 0.156639
287 1 0.715362 0.218688 0.0840681
288 1 0.708871 0.259401 0.0942976
289 1 0.728926 0.443764 0.179507
290 1 0.735534 0.376864 0.162716
291 1 0.728479 0.213373 0.103702
292 1 0.721916 0.254168 0.109462
293 1 0.742073 0.441612 0.191633
294 1 0.74874 0.375621 0.179299
295 1 0.741842 0.209145 0.106005
296 1 0.735164 0.244906 0.115159
297 1 0.755386 0.437618 0.200483
298 1 0.761757 0.374317 0.174583
299 1 0.755146 0.209145 0.123696
300 1 0.748585 0.246543 0.134188
301 1 0.768433 0.439472 0.192748
302 1 0.775297 0.383417 0.163929
303 1 0.768666 0.21069 0.115981
304 1 0.761882 0.242625 0.130197
305 1 0.782004 0.44867 0.182015
306 1 0.788674 0.386919 0.166189
307 1 0.781923 0.212658 0.110568
308 1 0.775311 0.249729 0.125041
309 1 0.795036 0.448495 0.185467
310 1 0.801965 0.39031 0.170082
311 1 0.795102 0.211355 0.122207
312 1 0.788553 0.254086 0.131137
313 1 0.808416 0.4544 0.192109
314 1 0.814801 0.387561 0.182504
315 1 0.808469 0.217044 0.132355
316 1 0.801782 0.254034 0.133472
317 1 0.821473 0.454277 0.181189
318 1 0.828088 0.389964 0.166307
319 1 0.821565 0.214152 0.137908
320 1 0.815064 0.252391 0.150724
321 1 0.834901 0.451913 0.18837
322 1 0.841564 0.389829 0.17368
323 1 0.834814 0.215305 0.13845
324 1 0.828048 0.25212 0.141556
325 1 0.847963 0.454814 0.18994
326 1 0.854603 0.394296 0.176855
327 1 0.847919 0.212644 0.127034
328 1 0.84136 0.255242 0.138075
329 1 0.861369 0.45999 0.186876
330 1 0.86774 0.393718 0.172074
331 1 0.861286 0.21681 0.133599
332 1 0.854566 0.256331 0.140164
333 1 0.874574 0.453051 0.187756
334 1 0.881102 0.39243 0.178717
335 1 0.874753 0.217382 0.152477
336 1 0.868023 0.255966 0.153547
337 1 0.887939 0.451173 0.191165
338 1 0.894544 0.391144 0.195849
339 1 0.888084 0.215957 0.158163
340 1 0.8815 0.254782 0.162399
341 1 0.901285 0.459583 0.20842
342 1 0.907962 0.392141 0.202146
343 1 0.901392 0.221341 0.168953
344 1 0.894906 0.255726 0.179589
345 1 0.914536 0.461939 0.202208
346 1 0.921413 0.397571 0.193994
347 1 0.915078 0.214017 0.172809
348 1 0.908269 0.255991 0.177639
349 1 0.928033 0.466584 0.200317
350 1 0.9347 0.402279 0.188853
351 1 0.928154 0.222099 0.168167
352 1 0.921488 0.263944 0.168858
353 1 0.941107 0.470438 0.186849
354 1 0.94771 0.406589 0.188006
355 1 0.941354 0.218317 0.191226
356 1 0.934658 0.263692 0.187058
357 1 0.95435 0.479063 0.188474
358 1 0.961017 0.415765 0.191493
359 1 0.954565 0.232298 0.195005
360 1 0.947957 0.269296 0.190582
361 1 0.967744 0.478554 0.201408
362 1 0.974244 0.416705 0.203132
363 1 0.967713 0.236301 0.199288
364 1 0.961101 0.272847 0.198303
365 1 0.980788 0.484927 0.206834
366 1 0.987441 0.42286 0.208487
367 1 0.9811 0.243778 0.205671
368 1 0.974402 0.2778 0.201151
369 1 0.0190268 0.859924 0.206752
370 1 0.0256951 0.821419 0.205042
371 1 0.0191164 0.61856 0.208399
372 1 0.0125568 0.683783 0.208845
373 1 0.0323541 0.865491 0.203042
374 1 0.0388676 0.824724 0.207132
375 1 0.0325229 0.617729 0.206435
376 1 0.0257254 0.682478 0.207097
377 1 0.0457335 0.870815 0.202888
378 1 0.0524046 0.828765 0.193571
379 1 0.0456593 0.62034 0.204369
380 1 0.0391366 0.682821 0.203864
381 1 0.0592782 0.86532 0.177389
382 1 0.0658931 0.822661 0.175023
383 1 0.0590178 0.617615 0.195513
384 1 0.0522843 0.686111 0.196099
385 1 0.0724612 0.859214 0.167319
386 1 0.079139 0.81146 0.163433
387 1 0.071904 0.611733 0.204616
388 1 0.0654987 0.685471 0.188998
389 1 0.0855536 0.849784 0.152433
390 1 0.0921127 0.813881 0.164183
391 1 0.0853717 0.613943 0.205436
392 1 0.0786966 0.678226 0.197667
393 1 0.0986189 0.856752 0.143361
394 1 0.105426 0.816842 0.154362
395 1 0.0988255 0.614571 0.201569
396 1 0.0922106 0.681705 0.195822
397 1 0.112176 0.85921 0.144682
398 1 0.118806 0.816637 0.152273
399 1 0.112182 0.612166 0.193136
400 1 0.10562 0.674985 0.182631
401 1 0.125589 0.848607 0.144161
402 1 0.132034 0.806863 0.152381
403 1 0.125405 0.606801 0.185422
404 1 0.118558 0.673186 0.180456
405 1 0.138877 0.839864 0.137142
406 1 0.145363 0.798522 0.140551
407 1 0.138632 0.604406 0.179475
408 1 0.13191 0.668008 0.176217
409 1 0.151979 0.845268 0.138308
410 1 0.15857 0.807366 0.151389
411 1 0.152219 0.602718 0.184118
412 1 0.145418 0.658815 0.161499
413 1 0.165514 0.843592 0.142974
414 1 0.172083 0.798407 0.149965
415 1 0.165478 0.604618 0.19063
416 1 0.158756 0.670509 0.173595
417 1 0.178802 0.837238 0.14
418 1 0.185102 0.797462 0.143774
419 1 0.179028 0.598963 0.19566
420 1 0.172396 0.663353 0.17931
421 1 0.191937 0.835504 0.137626
422 1 0.198721 0.793725 0.130832
423 1 0.192213 0.594109 0.182736
424 1 0.18568 0.657612 0.17234
425 1 0.20536 0.830786 0.116166
426 1 0.211956 0.788691 0.118764
427 1 0.205341 0.592918 0.182682
428 1 0.198601 0.657035 0.16275
429 1 0.218647 0.82721 0.107676
430 1 0.22546 0.793921 0.12148
431 1 0.218818 0.602147 0.194975
432 1 0.212019 0.656931 0.16826
433 1 0.23214 0.823342 0.101575
434 1 0.238794 0.781417 0.117425
435 1 0.231958 0.597015 0.196234
436 1 0.225377 0.66192 0.171118
437 1 0.245558 0.809351 0.0949308
438 1 0.252127 0.771831 0.103496
439 1 0.245338 0.594829 0.206184
440 1 0.238647 0.654485 0.173035
441 1 0.258545 0.805425 0.0788765
442 1 0.265031 0.767167 0.0995699
443 1 0.258654 0.581912 0.184337
444 1 0.251877 0.650767 0.167545
445 1 0.271678 0.798926 0.0812438
446 1 0.278191 0.757296 0.0897486
447 1 0.27181 0.581174 0.192503
448 1 0.265024 0.644296 0.160972
449 1 0.284699 0.787809 0.0571166
450 1 0.291202 0.742176 0.0752101
451 1 0.284892 0.574725 0.17445
452 1 0.278423 0.640435 0.160694
453 1 0.297851 0.776506 0.0557649
454 1 0.30458 0.747804 0.0786634
455 1 0.298244 0.565506 0.157977
456 1 0.29158 0.62503 0.136328
457 1 0.311465 0.781909 0.0621722
458 1 0.317949 0.748783 0.083187
459 1 0.311296 0.568955 0.166064
460 1 0.30477 0.625408 0.135988
461 1 0.324536 0.791909 0.0727376
462 1 0.3313 0.750592 0.0908974
463 1 0.324558 0.570026 0.17408
464 1 0.318077 0.623692 0.143439
465 1 0.33805 0.788778 0.0755387
466 1 0.344847 0.752393 0.0929638
467 1 0.337658 0.576164 0.193815
468 1 0.331195 0.626668 0.159097
469 1 0.351566 0.786574 0.068941
470 1 0.358257 0.752033 0.0987685
471 1 0.3509 0.577388 0.19718
472 1 0.344441 0.633407 0.166846
473 1 0.364906 0.782035 0.0811805
474 1 0.371411 0.738578 0.0971991
475 1 0.364135 0.569005 0.195463
476 1 0.357742 0.627737 0.169325
477 1 0.378273 0.771853 0.0832198
478 1 0.384903 0.737526 0.110676
479 1 0.377321 0.556545 0.192397
480 1 0.370765 0.61804 0.165749
481 1 0.391684 0.765169 0.0855357
482 1 0.398034 0.713224 0.100961
483 1 0.390518 0.54588 0.195852
484 1 0.384229 0.611347 0.166697
485 1 0.405131 0.735018 0.0816964
486 1 0.411645 0.687728 0.101527
487 1 0.403709 0.527935 0.204767
488 1 0.397607 0.593315 0.16962
489 1 0.418656 0.71095 0.0809052
490 1 0.425157 0.66354 0.0915949
491 1 0.417094 0.510863 0.212612
492 1 0.410609 0.576318 0.180353
493 1 0.431995 0.681149 0.0714862
494 1 0.43858 0.637275 0.0956166
495 1 0.430379 0.488058 0.209392
496 1 0.423825 0.555198 0.171812
497 1 0.445595 0.65725 0.0826885
498 1 0.452173 0.608274 0.11858
499 1 0.443495 0.470486 0.217131
500 1 0.436973 0.532778 0.174167
501 1 0.459385 0.624454 0.104449
502 1 0.466124 0.574279 0.136574
503 1 0.456906 0.439306 0.239769
504 1 0.45066 0.499819 0.18912
505 1 0.473529 0.558098 0.145596
506 1 0.480325 0.500081 0.177443
507 1 0.470451 0.404453 0.278398
508 1 0.464265 0.467571 0.21973
509 1 0.487426 0.461112 0.18924
510 1 0.493386 0.413811 0.257657
511 1 0.48268 0.39617 0.367357
512 1 0.477659 0.430903 0.277145
513 1 0.500427 0.405518 0.285977
514 1 0.505341 0.427204 0.375354
515 1 0.494404 0.398224 0.475968
516 1 0.48997 0.401402 0.368065
517 1 0.511732 0.468375 0.415661
518 1 0.515617 0.521181 0.510224
519 1 0.504505 0.465062 0.598446
520 1 0.501241 0.436423 0.485065
521 1 0.521567 0.589508 0.550792
522 1 0.524437 0.662786 0.64396
523 1 0.513286 0.584221 0.721381
524 1 0.511146 0.521166 0.611781
525 1 0.528451 0.771692 0.662658
526 1 0.527356 0.904395 0.674028
527 1 0.517804 0.793444 0.79555
528 1 0.518926 0.667942 0.735141
529 1 0.526797 0.995158 0.583
530 1 0.522636 1.01567 0.484746
531 1 0.514725 0.974609 0.660193
532 1 0.520006 0.903329 0.726026
533 1 0.522285 0.968714 0.37333
534 1 0.518253 0.912257 0.295569
535 1 0.510076 0.968185 0.450429
536 1 0.51562 1.00505 0.533012
537 1 0.51806 0.830836 0.196578
538 1 0.513953 0.752891 0.128265
539 1 0.505798 0.876007 0.253172
540 1 0.511086 0.9208 0.331279
541 1 0.513988 0.651012 0.0537973
542 1 0.510119 0.558481 -0.00368549
543 1 0.502177 0.728079 0.0811061
544 1 0.507068 0.799053 0.149526
545 1 0.509221 0.428288 -0.00013927
546 1 0.505002 0.334731 0.0470944
547 1 0.497477 0.508307 0.00395747
548 1 0.502883 0.603457 0.0142999
549 1 0.504707 0.235777 0.128891
550 1 0.500951 0.179733 0.214634
551 1 0.492862 0.291888 0.0840019
552 1 0.498105 0.373538 0.0368841
553 1 0.500434 0.123859 0.320443
554 1 0.495865 0.0854627 0.400142
555 1 0.488259 0.14938 0.238394
556 1 0.493957 0.202131 0.173687
557 1 0.495377 0.0461307 0.516745
558 1 0.49089 0.0256555 0.6053
559 1 0.483364 0.0420578 0.431665
560 1 0.488916 0.0902832 0.359418
561 1 0.490733 0.0314216 0.72626
562 1 0.48638 0.0613244 0.814226
563 1 0.478495 0.0100776 0.640136
564 1 0.484124 0.0126513 0.555615
565 1 0.485805 0.143796 0.90575
566 1 0.482995 0.24894 0.955103
567 1 0.474773 0.152856 0.806877
568 1 0.47965 0.0585326 0.757458
569 1 0.485505 0.366587 0.978134
570 1 0.486205 0.478093 0.92286
571 1 0.477263 0.382741 0.807272
572 1 0.477331 0.260828 0.871368
573 1 0.490923 0.568736 0.902676
574 1 0.49439 0.629329 0.814479
575 1 0.485183 0.532553 0.705971
576 1 0.48228 0.477621 0.811488
577 1 0.500045 0.694489 0.786928
578 1 0.504312 0.721711 0.698629
579 1 0.495122 0.621327 0.589431
580 1 0.491757 0.598518 0.699696
581 1 0.510122 0.775727 0.668794
582 1 0.514655 0.793459 0.580868
583 1 0.506206 0.673878 0.489463
584 1 0.501718 0.671439 0.591228
585 1 0.520715 0.832895 0.549818
586 1 0.526642 0.826876 0.485736
587 1 0.518204 0.685979 0.401524
588 1 0.512986 0.714911 0.485562
589 1 0.533153 0.868987 0.48917
590 1 0.539385 0.830508 0.451447
591 1 0.531359 0.67558 0.354858
592 1 0.525237 0.72799 0.404136
593 1 0.54595 0.856051 0.459414
594 1 0.55219 0.82055 0.420188
595 1 0.544304 0.662797 0.323101
596 1 0.538328 0.719873 0.375094
597 1 0.558633 0.856934 0.429472
598 1 0.5649 0.807958 0.403896
599 1 0.55749 0.644574 0.308452
600 1 0.551276 0.705147 0.342611
601 1 0.571596 0.841356 0.416364
602 1 0.577821 0.792504 0.389338
603 1 0.570387 0.626048 0.30095
604 1 0.564342 0.689572 0.33796
605 1 0.584463 0.821497 0.401312
606 1 0.590986 0.774984 0.382768
607 1 0.583452 0.616147 0.290158
608 1 0.577194 0.674169 0.32488
609 1 0.597407 0.814018 0.387442
610 1 0.604091 0.778632 0.358849
611 1 0.596584 0.598062 0.277337
612 1 0.590133 0.654636 0.317247
613 1 0.610521 0.809821 0.37643
614 1 0.617148 0.767838 0.363059
615 1 0.610074 0.594011 0.269711
616 1 0.603357 0.652682 0.303699
617 1 0.623808 0.797226 0.379326
618 1 0.630129 0.764419 0.355449
619 1 0.622849 0.588423 0.259701
620 1 0.616509 0.649057 0.300287
621 1 0.636732 0.801081 0.362782
622 1 0.642939 0.762951 0.334997
623 1 0.636107 0.581496 0.247452
624 1 0.629559 0.641582 0.288659
625 1 0.649374 0.795423 0.354478
626 1 0.655902 0.759072 0.331081
627 1 0.649226 0.582654 0.241177
628 1 0.642769 0.64167 0.274308
629 1 0.662427 0.79933 0.347898
630 1 0.669147 0.768496 0.326011
631 1 0.662447 0.585374 0.234721
632 1 0.656042 0.638884 0.268812
633 1 0.675988 0.802298 0.343092
634 1 0.682401 0.765019 0.308045
635 1 0.675638 0.581914 0.219011
636 1 0.669402 0.643802 0.259771
637 1 0.689085 0.796627 0.323879
638 1 0.6958 0.763323 0.308084
639 1 0.688981 0.574736 0.216646
640 1 0.682376 0.64177 0.239009
641 1 0.702524 0.79788 0.32611
642 1 0.709121 0.756741 0.311968
643 1 0.702329 0.572874 0.232179
644 1 0.695486 0.638023 0.244816
645 1 0.715706 0.79654 0.322808
646 1 0.722414 0.758914 0.304841
647 1 0.715763 0.568217 0.236957
648 1 0.708791 0.629055 0.259074
649 1 0.728887 0.79913 0.314843
650 1 0.735752 0.766417 0.294645
651 1 0.728819 0.572315 0.228607
652 1 0.722324 0.631981 0.258617
653 1 0.742126 0.80411 0.303659
654 1 0.748624 0.767252 0.290271
655 1 0.741983 0.573768 0.226368
656 1 0.735374 0.633725 0.250629
657 1 0.755162 0.798917 0.298131
658 1 0.761879 0.767308 0.277858
659 1 0.755232 0.567702 0.238954
660 1 0.748548 0.635457 0.249919
661 1 0.768409 0.812068 0.270979
662 1 0.774962 0.766581 0.272067
663 1 0.768333 0.566827 0.232147
664 1 0.761971 0.630597 0.244842
665 1 0.781553 0.8095 0.283729
666 1 0.788176 0.774202 0.271555
667 1 0.781714 0.574949 0.227829
668 1 0.775251 0.631659 0.245425
669 1 0.794895 0.814329 0.271798
670 1 0.801428 0.775209 0.264043
671 1 0.79493 0.578316 0.225293
672 1 0.788341 0.637442 0.248616
673 1 0.807857 0.815235 0.275024
674 1 0.814656 0.780039 0.26873
675 1 0.808343 0.590642 0.218445
676 1 0.801546 0.644793 0.233966
677 1 0.821164 0.822657 0.291583
678 1 0.827852 0.786157 0.276752
679 1 0.821519 0.588743 0.215605
680 1 0.814927 0.653346 0.229957
681 1 0.834425 0.82825 0.282488
682 1 0.841067 0.785164 0.267807
683 1 0.834717 0.586978 0.224043
684 1 0.828024 0.652453 0.236303
685 1 0.847731 0.828209 0.279128
686 1 0.854246 0.789009 0.26031
687 1 0.847797 0.591556 0.217575
688 1 0.841145 0.653137 0.241008
689 1 0.860856 0.825628 0.256743
690 1 0.867486 0.78981 0.244546
691 1 0.861195 0.591003 0.21674
692 1 0.854261 0.653933 0.232307
693 1 0.874166 0.825957 0.248846
694 1 0.881115 0.791415 0.244068
695 1 0.874513 0.59078 0.20961
696 1 0.867762 0.651377 0.223072
697 1 0.88766 0.834617 0.244987
698 1 0.894112 0.793074 0.238682
699 1 0.887734 0.586169 0.217561
700 1 0.881123 0.655207 0.225316
701 1 0.900643 0.836199 0.240738
702 1 0.907335 0.794945 0.2321
703 1 0.900846 0.592819 0.214799
704 1 0.894106 0.654348 0.222696
705 1 0.913898 0.839688 0.236763
706 1 0.920644 0.804173 0.228632
707 1 0.91431 0.599659 0.213405
708 1 0.907381 0.660528 0.22127
709 1 0.927251 0.846132 0.225437
710 1 0.933894 0.810596 0.218279
711 1 0.927616 0.603735 0.2037
712 1 0.920789 0.66663 0.211706
713 1 0.940343 0.857543 0.222063
714 1 0.947152 0.816374 0.215956
715 1 0.940991 0.607088 0.193348
716 1 0.934158 0.672938 0.200881
717 1 0.95401 0.862971 0.216337
718 1 0.96053 0.825067 0.211624
719 1 0.954219 0.618537 0.195081
720 1 0.947445 0.677988 0.199778
721 1 0.967218 0.864397 0.216278
722 1 0.973676 0.821742 0.21271
723 1 0.967291 0.617798 0.206682
724 1 0.960738 0.68509 0.202848
725 1 0.980295 0.866877 0.212944
726 1 0.987104 0.833613 0.210374
727 1 0.980726 0.622109 0.208325
728 1 0.973898 0.682149 0.208846
729 1 0.993868 0.48712 0.208799
730 1 0.999899 0.420756 0.208801
731 1 0.993788 0.220918 0.208809
732 1 0.987726 0.286877 0.208767
733 1 0.993824 0.88544 0.208827
734 1 0.9999 0.821115 0.208793
735 1 0.993757 0.61981 0.208799
736 1 0.987708 0.687699 0.208813
