ITEM: TIMESTEP
372000
ITEM: NUMBER OF ATOMS
736
ITEM: BOX BOUNDS ss ss ss
-0.0156116 208.985
2.33075 12.3951
-0.348271 10.7942
ITEM: ATOMS id type xs ys zs
1 1 0.00602249 0.446181 0.251594
2 1 0.0118468 0.374116 0.251608
3 1 0.00594775 0.164801 0.251608
4 1 9.64239e-05 0.232904 0.251591
5 1 0.0059951 0.868688 0.251605
6 1 0.0118414 0.798711 0.251573
7 1 0.00591416 0.586693 0.251601
8 1 9.97629e-05 0.656999 0.251598
9 1 0.0184161 0.43993 0.252076
10 1 0.0247723 0.370895 0.253937
11 1 0.0185447 0.178966 0.254938
12 1 0.0122152 0.219879 0.252478
13 1 0.0313669 0.435904 0.257812
14 1 0.0374975 0.369184 0.266751
15 1 0.0314631 0.183229 0.265558
16 1 0.0248284 0.223514 0.256551
17 1 0.0440785 0.440983 0.270301
18 1 0.0505739 0.370324 0.282568
19 1 0.0442546 0.178703 0.283399
20 1 0.0378664 0.222915 0.277469
21 1 0.0571178 0.437559 0.281507
22 1 0.0638245 0.369428 0.287056
23 1 0.057202 0.179489 0.297181
24 1 0.0508122 0.22475 0.288628
25 1 0.0704289 0.438181 0.269199
26 1 0.0769504 0.369861 0.260943
27 1 0.0702741 0.183435 0.293136
28 1 0.0637395 0.217874 0.293389
29 1 0.0834936 0.437929 0.262434
30 1 0.0901044 0.373326 0.265709
31 1 0.0836959 0.17912 0.280779
32 1 0.0768655 0.220072 0.274812
33 1 0.0967286 0.441483 0.258998
34 1 0.103214 0.368672 0.265782
35 1 0.0966601 0.180609 0.275012
36 1 0.0900623 0.224297 0.276574
37 1 0.109626 0.438546 0.261649
38 1 0.116039 0.370834 0.269352
39 1 0.109529 0.168267 0.292714
40 1 0.103165 0.219001 0.273382
41 1 0.122735 0.434995 0.274717
42 1 0.129213 0.368139 0.278226
43 1 0.122696 0.172252 0.298306
44 1 0.116095 0.215863 0.28993
45 1 0.135964 0.437709 0.267762
46 1 0.142529 0.371838 0.279746
47 1 0.135824 0.183482 0.302891
48 1 0.129064 0.222419 0.295579
49 1 0.148855 0.440677 0.266989
50 1 0.155247 0.371106 0.273501
51 1 0.148741 0.177714 0.309146
52 1 0.142323 0.228122 0.296553
53 1 0.161717 0.438622 0.26413
54 1 0.168526 0.372675 0.282887
55 1 0.161849 0.181347 0.310677
56 1 0.155345 0.222457 0.303585
57 1 0.174731 0.44605 0.270481
58 1 0.18162 0.374195 0.284366
59 1 0.174884 0.190494 0.330406
60 1 0.168416 0.229478 0.310623
61 1 0.188325 0.445109 0.270039
62 1 0.194821 0.378933 0.291448
63 1 0.188448 0.194749 0.339595
64 1 0.181577 0.22877 0.314861
65 1 0.201309 0.45324 0.278624
66 1 0.208301 0.390501 0.300745
67 1 0.201733 0.203325 0.338087
68 1 0.194908 0.23707 0.33318
69 1 0.214606 0.458033 0.277679
70 1 0.220902 0.393457 0.302169
71 1 0.214219 0.208814 0.343164
72 1 0.207956 0.246188 0.332028
73 1 0.227478 0.456738 0.275654
74 1 0.233789 0.392711 0.299868
75 1 0.227354 0.211205 0.35176
76 1 0.220646 0.251971 0.336567
77 1 0.240366 0.450798 0.276495
78 1 0.246944 0.384377 0.29546
79 1 0.240209 0.203286 0.357166
80 1 0.233657 0.256709 0.349773
81 1 0.253551 0.443412 0.273972
82 1 0.260064 0.372258 0.29184
83 1 0.253176 0.204468 0.355573
84 1 0.24664 0.244364 0.3403
85 1 0.266593 0.434661 0.269818
86 1 0.273231 0.373323 0.282519
87 1 0.266393 0.190665 0.359103
88 1 0.259868 0.231072 0.340483
89 1 0.279931 0.436752 0.260449
90 1 0.286697 0.376601 0.289066
91 1 0.279521 0.201747 0.35041
92 1 0.272884 0.235075 0.335818
93 1 0.293101 0.438333 0.269856
94 1 0.299644 0.374725 0.293367
95 1 0.2926 0.20072 0.367458
96 1 0.285943 0.23836 0.350331
97 1 0.306027 0.436249 0.274487
98 1 0.312596 0.3813 0.305379
99 1 0.305726 0.20913 0.380756
100 1 0.299068 0.234848 0.353886
101 1 0.31924 0.44725 0.279257
102 1 0.325589 0.381738 0.300236
103 1 0.319057 0.212642 0.378165
104 1 0.312515 0.24913 0.367657
105 1 0.332164 0.4367 0.275757
106 1 0.338434 0.379259 0.30974
107 1 0.331972 0.216445 0.387588
108 1 0.32539 0.252407 0.365821
109 1 0.34523 0.445642 0.296305
110 1 0.351393 0.385334 0.323448
111 1 0.344809 0.204206 0.388037
112 1 0.338574 0.245891 0.3699
113 1 0.358139 0.450374 0.304344
114 1 0.364561 0.380621 0.327473
115 1 0.357824 0.205218 0.389766
116 1 0.351379 0.243945 0.377461
117 1 0.370888 0.441588 0.303677
118 1 0.37726 0.384798 0.331226
119 1 0.370818 0.209416 0.400462
120 1 0.364472 0.243027 0.375258
121 1 0.384101 0.429896 0.308066
122 1 0.390457 0.371454 0.33325
123 1 0.383485 0.20935 0.406526
124 1 0.377452 0.250707 0.387953
125 1 0.397077 0.431321 0.31224
126 1 0.403584 0.367385 0.346436
127 1 0.396454 0.198758 0.410234
128 1 0.390189 0.239154 0.387663
129 1 0.410018 0.421366 0.318923
130 1 0.416357 0.359165 0.351676
131 1 0.40928 0.20604 0.441372
132 1 0.402986 0.238948 0.408722
133 1 0.422955 0.413449 0.329727
134 1 0.429352 0.35057 0.365992
135 1 0.422151 0.182979 0.440656
136 1 0.415732 0.226527 0.42153
137 1 0.43574 0.400531 0.343331
138 1 0.44221 0.339668 0.378573
139 1 0.435134 0.17097 0.448398
140 1 0.428657 0.209205 0.421266
141 1 0.448858 0.391056 0.362438
142 1 0.454878 0.334233 0.406556
143 1 0.447873 0.167871 0.460851
144 1 0.441359 0.207532 0.433831
145 1 0.461726 0.376474 0.403111
146 1 0.466965 0.331305 0.486202
147 1 0.460333 0.176967 0.50939
148 1 0.454359 0.207568 0.455973
149 1 0.473495 0.379385 0.498123
150 1 0.478376 0.347776 0.592333
151 1 0.471127 0.205231 0.633641
152 1 0.466145 0.21484 0.554402
153 1 0.485029 0.386987 0.608014
154 1 0.488697 0.384389 0.711829
155 1 0.480625 0.267324 0.779398
156 1 0.47651 0.255355 0.682597
157 1 0.494876 0.442221 0.724383
158 1 0.497162 0.502084 0.840087
159 1 0.489521 0.373421 0.916989
160 1 0.486188 0.324459 0.822674
161 1 0.502017 0.603904 0.832102
162 1 0.50105 0.736812 0.892846
163 1 0.4937 0.6069 0.998698
164 1 0.493528 0.479062 0.953655
165 1 0.503672 0.850864 0.827948
166 1 0.498496 0.932892 0.76791
167 1 0.491597 0.84727 0.916593
168 1 0.494911 0.739507 0.969845
169 1 0.499454 0.96701 0.634571
170 1 0.493791 0.956636 0.554521
171 1 0.487363 0.934477 0.723476
172 1 0.491598 0.924145 0.813967
173 1 0.494934 0.91664 0.424105
174 1 0.489337 0.875258 0.34529
175 1 0.482846 0.923362 0.511833
176 1 0.487062 0.944294 0.600102
177 1 0.490163 0.819599 0.224964
178 1 0.484799 0.770151 0.149838
179 1 0.478831 0.863116 0.297348
180 1 0.482691 0.894358 0.392021
181 1 0.48513 0.668728 0.0551888
182 1 0.479892 0.582476 0.0139611
183 1 0.473978 0.730511 0.110295
184 1 0.478137 0.799505 0.188308
185 1 0.480207 0.427027 0.0157347
186 1 0.475021 0.33676 0.0614118
187 1 0.469113 0.513657 0.0224125
188 1 0.47311 0.625627 0.0257826
189 1 0.476147 0.2274 0.156085
190 1 0.471096 0.166964 0.22706
191 1 0.464568 0.291138 0.107391
192 1 0.468451 0.382758 0.0486292
193 1 0.472037 0.0888402 0.339925
194 1 0.466597 0.0308308 0.420887
195 1 0.460029 0.118942 0.269455
196 1 0.464241 0.187919 0.198325
197 1 0.467342 0.00386728 0.550435
198 1 0.462169 0.033886 0.64522
199 1 0.45538 0.000173623 0.472712
200 1 0.459238 0.032167 0.37484
201 1 0.46389 0.128896 0.744737
202 1 0.462119 0.2746 0.72151
203 1 0.453128 0.166996 0.640062
204 1 0.454914 0.0312976 0.599901
205 1 0.466755 0.38083 0.731556
206 1 0.468356 0.483028 0.632297
207 1 0.458352 0.414163 0.57999
208 1 0.456306 0.296645 0.647919
209 1 0.474989 0.541739 0.616393
210 1 0.478442 0.590471 0.50492
211 1 0.467631 0.587743 0.446047
212 1 0.463437 0.513206 0.546781
213 1 0.485359 0.606245 0.486483
214 1 0.489877 0.596314 0.383762
215 1 0.479572 0.633109 0.310131
216 1 0.474241 0.624409 0.401742
217 1 0.496706 0.587221 0.385865
218 1 0.502018 0.548442 0.290185
219 1 0.492271 0.54113 0.193458
220 1 0.486612 0.601502 0.266405
221 1 0.509373 0.542772 0.301193
222 1 0.515668 0.481347 0.240313
223 1 0.506849 0.423558 0.129341
224 1 0.499274 0.485766 0.184412
225 1 0.522679 0.512278 0.269347
226 1 0.529199 0.4602 0.218448
227 1 0.52099 0.362544 0.0956341
228 1 0.514085 0.401507 0.130621
229 1 0.535977 0.498179 0.2567
230 1 0.542904 0.442205 0.206288
231 1 0.534945 0.328548 0.0794994
232 1 0.52799 0.372763 0.108247
233 1 0.549436 0.484024 0.244595
234 1 0.556015 0.43233 0.201486
235 1 0.548834 0.305922 0.0795843
236 1 0.541592 0.339983 0.102205
237 1 0.562616 0.481951 0.237493
238 1 0.569113 0.417079 0.199683
239 1 0.562077 0.293927 0.0774309
240 1 0.555666 0.332133 0.105207
241 1 0.575608 0.472093 0.236104
242 1 0.582165 0.422422 0.192507
243 1 0.575467 0.277045 0.0785083
244 1 0.568872 0.312187 0.104035
245 1 0.588705 0.474708 0.223156
246 1 0.595312 0.421248 0.182758
247 1 0.588747 0.271951 0.0848297
248 1 0.582179 0.3081 0.105538
249 1 0.602047 0.47173 0.22057
250 1 0.608592 0.405707 0.18963
251 1 0.60164 0.263028 0.0850345
252 1 0.595264 0.304218 0.108837
253 1 0.615097 0.461941 0.220817
254 1 0.621871 0.398755 0.193644
255 1 0.615241 0.253216 0.0898824
256 1 0.608527 0.289885 0.109241
257 1 0.628316 0.452497 0.233805
258 1 0.634871 0.398608 0.205173
259 1 0.628297 0.242501 0.0969128
260 1 0.621676 0.279839 0.115146
261 1 0.641534 0.453376 0.235345
262 1 0.647977 0.399449 0.200209
263 1 0.641499 0.24231 0.107427
264 1 0.635105 0.274372 0.123381
265 1 0.65446 0.449672 0.23447
266 1 0.66074 0.391093 0.201902
267 1 0.654276 0.23433 0.111343
268 1 0.648018 0.276641 0.129175
269 1 0.667498 0.456231 0.23077
270 1 0.67405 0.398203 0.195273
271 1 0.667443 0.231822 0.117
272 1 0.660689 0.260493 0.135205
273 1 0.680568 0.446788 0.223471
274 1 0.687056 0.388071 0.199205
275 1 0.680581 0.224564 0.112473
276 1 0.673981 0.265914 0.13435
277 1 0.693766 0.443602 0.228347
278 1 0.700669 0.387477 0.20122
279 1 0.693896 0.222459 0.103643
280 1 0.687383 0.260374 0.125378
281 1 0.707134 0.442748 0.234861
282 1 0.713811 0.379477 0.208366
283 1 0.707399 0.217096 0.114021
284 1 0.700672 0.259267 0.12769
285 1 0.7204 0.442717 0.234755
286 1 0.726955 0.386074 0.208089
287 1 0.720512 0.214198 0.130565
288 1 0.713905 0.253312 0.140994
289 1 0.733216 0.44715 0.235328
290 1 0.739719 0.3791 0.211114
291 1 0.733339 0.208277 0.129893
292 1 0.727061 0.254691 0.151474
293 1 0.746126 0.441341 0.236243
294 1 0.752659 0.379096 0.213962
295 1 0.746174 0.207014 0.137707
296 1 0.73998 0.247397 0.151106
297 1 0.75918 0.438197 0.236969
298 1 0.765703 0.373803 0.212381
299 1 0.758991 0.196326 0.144078
300 1 0.752584 0.234972 0.157569
301 1 0.772141 0.436109 0.226982
302 1 0.77894 0.365826 0.209656
303 1 0.772081 0.199359 0.146527
304 1 0.765396 0.238395 0.162728
305 1 0.785695 0.428683 0.236237
306 1 0.792296 0.364315 0.215703
307 1 0.785089 0.18448 0.16006
308 1 0.778687 0.23014 0.161909
309 1 0.798673 0.432379 0.230379
310 1 0.805202 0.366847 0.214799
311 1 0.798529 0.1844 0.164756
312 1 0.791797 0.221543 0.175194
313 1 0.811551 0.433937 0.223812
314 1 0.81846 0.367442 0.211719
315 1 0.811473 0.184096 0.159912
316 1 0.805042 0.224907 0.174069
317 1 0.825078 0.431154 0.224826
318 1 0.831259 0.358728 0.208556
319 1 0.824468 0.178617 0.15103
320 1 0.817964 0.227924 0.172265
321 1 0.837824 0.416831 0.225022
322 1 0.844368 0.356414 0.201906
323 1 0.837644 0.173737 0.149936
324 1 0.831195 0.21604 0.166596
325 1 0.851188 0.414221 0.225468
326 1 0.857657 0.349954 0.216938
327 1 0.851074 0.171821 0.154473
328 1 0.844477 0.214769 0.159095
329 1 0.86453 0.415792 0.227632
330 1 0.870862 0.351525 0.214864
331 1 0.864254 0.168489 0.164906
332 1 0.85771 0.209234 0.17562
333 1 0.877575 0.419689 0.21494
334 1 0.883991 0.348846 0.211104
335 1 0.877447 0.163646 0.179416
336 1 0.870814 0.208349 0.18089
337 1 0.890145 0.417474 0.231952
338 1 0.896663 0.355125 0.228173
339 1 0.89061 0.153738 0.205651
340 1 0.884234 0.20149 0.196467
341 1 0.903084 0.425485 0.235358
342 1 0.909814 0.356448 0.23162
343 1 0.903616 0.162169 0.226197
344 1 0.896901 0.203505 0.219587
345 1 0.916145 0.426718 0.237317
346 1 0.922885 0.35856 0.231635
347 1 0.916559 0.164017 0.214892
348 1 0.910106 0.207705 0.228151
349 1 0.929093 0.423807 0.232066
350 1 0.935725 0.354777 0.226863
351 1 0.929074 0.163597 0.223927
352 1 0.922895 0.209551 0.221379
353 1 0.942211 0.425226 0.234648
354 1 0.948799 0.360013 0.239157
355 1 0.942389 0.163284 0.224422
356 1 0.935894 0.203674 0.218372
357 1 0.955513 0.42213 0.237823
358 1 0.962169 0.362151 0.241246
359 1 0.955412 0.167971 0.235959
360 1 0.948728 0.208926 0.233666
361 1 0.968375 0.439503 0.239146
362 1 0.975266 0.370975 0.245764
363 1 0.969037 0.179829 0.240655
364 1 0.962152 0.214915 0.240298
365 1 0.981576 0.443236 0.249574
366 1 0.987991 0.377495 0.251275
367 1 0.981877 0.18781 0.248377
368 1 0.975418 0.223846 0.243725
369 1 0.0183464 0.840436 0.249489
370 1 0.0247762 0.799651 0.247729
371 1 0.0184328 0.584782 0.251184
372 1 0.0121078 0.653866 0.251644
373 1 0.0312125 0.840471 0.242535
374 1 0.0382339 0.802255 0.241951
375 1 0.0313987 0.58526 0.2539
376 1 0.0248054 0.652484 0.249844
377 1 0.0448247 0.84382 0.248712
378 1 0.0509816 0.798748 0.242776
379 1 0.0445974 0.585265 0.252109
380 1 0.0379275 0.655574 0.246744
381 1 0.0574523 0.842404 0.24245
382 1 0.064042 0.802878 0.247174
383 1 0.0574364 0.583069 0.256951
384 1 0.0511017 0.649745 0.24852
385 1 0.0706187 0.848706 0.246669
386 1 0.0770608 0.803137 0.239383
387 1 0.0703965 0.582223 0.257713
388 1 0.0638868 0.647557 0.254545
389 1 0.0835225 0.843526 0.233996
390 1 0.089986 0.804293 0.241809
391 1 0.0837334 0.583553 0.250864
392 1 0.0771947 0.650048 0.245746
393 1 0.0966063 0.836607 0.224108
394 1 0.10303 0.795549 0.218073
395 1 0.0966683 0.585169 0.241877
396 1 0.0902158 0.655933 0.25122
397 1 0.109578 0.834148 0.207139
398 1 0.116092 0.795684 0.216582
399 1 0.109477 0.581911 0.249046
400 1 0.103251 0.649268 0.231204
401 1 0.122542 0.839086 0.222959
402 1 0.128879 0.793146 0.239508
403 1 0.122768 0.580851 0.270344
404 1 0.11595 0.652678 0.247503
405 1 0.135545 0.830774 0.218554
406 1 0.14179 0.789508 0.208087
407 1 0.135884 0.581865 0.254594
408 1 0.129624 0.648941 0.263196
409 1 0.148134 0.836173 0.196917
410 1 0.154895 0.798918 0.208398
411 1 0.148754 0.584907 0.246054
412 1 0.142204 0.647172 0.233797
413 1 0.161473 0.83588 0.197306
414 1 0.168104 0.793243 0.202434
415 1 0.161638 0.579897 0.241335
416 1 0.155255 0.650998 0.237138
417 1 0.17433 0.840299 0.183274
418 1 0.180897 0.800729 0.189815
419 1 0.174757 0.587259 0.24485
420 1 0.167937 0.650093 0.237107
421 1 0.18773 0.837576 0.171862
422 1 0.194386 0.800278 0.179204
423 1 0.18792 0.587255 0.236576
424 1 0.181275 0.655146 0.23119
425 1 0.201035 0.83679 0.172941
426 1 0.207664 0.794097 0.173474
427 1 0.201544 0.588347 0.237135
428 1 0.194699 0.654998 0.217153
429 1 0.214321 0.835188 0.154733
430 1 0.221183 0.799446 0.156113
431 1 0.214703 0.594977 0.231081
432 1 0.208126 0.651071 0.209216
433 1 0.227643 0.835862 0.136308
434 1 0.234244 0.787863 0.145493
435 1 0.227491 0.591754 0.217217
436 1 0.221021 0.658508 0.203722
437 1 0.240924 0.823247 0.134173
438 1 0.247352 0.777152 0.146266
439 1 0.240422 0.582816 0.215126
440 1 0.233755 0.65001 0.192737
441 1 0.253698 0.814442 0.128112
442 1 0.260023 0.770441 0.141394
443 1 0.253774 0.575504 0.220377
444 1 0.247183 0.64077 0.194279
445 1 0.266509 0.811114 0.127095
446 1 0.27301 0.7748 0.142908
447 1 0.266577 0.572903 0.22024
448 1 0.26007 0.637757 0.195625
449 1 0.279745 0.807983 0.124709
450 1 0.286211 0.773892 0.14515
451 1 0.279536 0.576234 0.214511
452 1 0.273031 0.636538 0.187099
453 1 0.292725 0.809104 0.133417
454 1 0.299317 0.768687 0.148995
455 1 0.292851 0.569444 0.222676
456 1 0.286128 0.631554 0.194268
457 1 0.305996 0.812018 0.134507
458 1 0.312828 0.784171 0.151908
459 1 0.306162 0.573964 0.224244
460 1 0.299456 0.631541 0.196451
461 1 0.319305 0.820519 0.137018
462 1 0.325786 0.780553 0.148054
463 1 0.318994 0.583645 0.227537
464 1 0.312238 0.643451 0.204283
465 1 0.332462 0.809627 0.129813
466 1 0.33882 0.767531 0.143535
467 1 0.332016 0.575526 0.223785
468 1 0.325528 0.641329 0.201073
469 1 0.345144 0.801509 0.10871
470 1 0.351778 0.766776 0.131486
471 1 0.345268 0.5766 0.24066
472 1 0.338709 0.640793 0.21257
473 1 0.358533 0.795013 0.113376
474 1 0.364938 0.753986 0.126624
475 1 0.358293 0.577386 0.24118
476 1 0.351881 0.643747 0.209447
477 1 0.371514 0.783767 0.111705
478 1 0.377665 0.74658 0.14525
479 1 0.371217 0.566353 0.237718
480 1 0.364837 0.626588 0.20116
481 1 0.384256 0.784504 0.121289
482 1 0.391188 0.744427 0.134733
483 1 0.384091 0.561842 0.245253
484 1 0.377676 0.623949 0.217995
485 1 0.398099 0.768194 0.117918
486 1 0.404829 0.730221 0.143971
487 1 0.397416 0.553925 0.240905
488 1 0.391138 0.614869 0.206799
489 1 0.411338 0.763106 0.126456
490 1 0.417898 0.722464 0.158015
491 1 0.410827 0.542364 0.249845
492 1 0.404356 0.605575 0.213376
493 1 0.424664 0.74167 0.13848
494 1 0.431293 0.705167 0.160513
495 1 0.423733 0.532178 0.25334
496 1 0.41751 0.598012 0.228228
497 1 0.438082 0.72694 0.137354
498 1 0.445018 0.688356 0.163799
499 1 0.436976 0.529864 0.278726
500 1 0.430548 0.585518 0.235554
501 1 0.452292 0.705868 0.159077
502 1 0.458482 0.643049 0.180894
503 1 0.45007 0.497746 0.28034
504 1 0.44396 0.570509 0.241685
505 1 0.466008 0.618156 0.176106
506 1 0.473265 0.5244 0.193895
507 1 0.463317 0.463502 0.311571
508 1 0.457014 0.528194 0.256629
509 1 0.480326 0.45007 0.210452
510 1 0.486764 0.390453 0.279969
511 1 0.476142 0.420753 0.38782
512 1 0.470682 0.464083 0.301847
513 1 0.493353 0.371126 0.303183
514 1 0.49872 0.382336 0.388043
515 1 0.487923 0.400486 0.493855
516 1 0.482787 0.402195 0.389951
517 1 0.50529 0.420473 0.433238
518 1 0.509757 0.476883 0.528248
519 1 0.498747 0.443125 0.615734
520 1 0.495163 0.410722 0.503031
521 1 0.51501 0.564329 0.564183
522 1 0.517075 0.669674 0.652465
523 1 0.506712 0.589601 0.736614
524 1 0.505263 0.49771 0.629582
525 1 0.520037 0.797351 0.661225
526 1 0.518201 0.948907 0.624952
527 1 0.509953 0.829879 0.770145
528 1 0.511418 0.69111 0.734053
529 1 0.517477 0.995089 0.505246
530 1 0.51329 0.976996 0.405543
531 1 0.505933 0.976112 0.589345
532 1 0.511499 0.941949 0.677217
533 1 0.513115 0.912022 0.291327
534 1 0.50887 0.83838 0.21505
535 1 0.501345 0.916892 0.371324
536 1 0.506452 0.967548 0.452142
537 1 0.508105 0.74936 0.113028
538 1 0.503963 0.673603 0.0472703
539 1 0.496634 0.801542 0.180708
540 1 0.502269 0.859331 0.254935
541 1 0.503426 0.551133 -0.00487674
542 1 0.49916 0.439249 0.000791779
543 1 0.491697 0.637009 0.0243962
544 1 0.497229 0.714892 0.0785828
545 1 0.498393 0.317689 0.0676861
546 1 0.494552 0.243689 0.139082
547 1 0.486876 0.387536 0.0385858
548 1 0.492299 0.48143 0.00987712
549 1 0.494336 0.170885 0.243975
550 1 0.490474 0.124322 0.340391
551 1 0.482925 0.199586 0.185894
552 1 0.487754 0.265592 0.113565
553 1 0.490335 0.0914362 0.461641
554 1 0.486338 0.0586842 0.560779
555 1 0.47871 0.0760974 0.382624
556 1 0.483684 0.129628 0.301157
557 1 0.486179 0.0465265 0.689234
558 1 0.481775 0.034891 0.783891
559 1 0.474012 0.00773874 0.594076
560 1 0.479463 0.0446437 0.513141
561 1 0.481274 0.104144 0.898022
562 1 0.478132 0.209686 0.957516
563 1 0.470246 0.108866 0.800304
564 1 0.475098 0.0323617 0.728434
565 1 0.480216 0.333396 0.984566
566 1 0.480137 0.464628 0.941646
567 1 0.471528 0.362565 0.823619
568 1 0.472439 0.220118 0.878998
569 1 0.484379 0.569617 0.927057
570 1 0.487311 0.630139 0.829008
571 1 0.478779 0.528992 0.722033
572 1 0.475998 0.465275 0.829078
573 1 0.492782 0.691792 0.787093
574 1 0.497171 0.714657 0.698347
575 1 0.488539 0.605287 0.603433
576 1 0.484818 0.586945 0.710757
577 1 0.502561 0.769249 0.653068
578 1 0.507266 0.768435 0.565194
579 1 0.499339 0.624943 0.496917
580 1 0.495028 0.641331 0.595722
581 1 0.513051 0.807308 0.525891
582 1 0.518918 0.791915 0.472296
583 1 0.511084 0.62932 0.397915
584 1 0.506031 0.666796 0.479645
585 1 0.525195 0.832661 0.482837
586 1 0.531249 0.791849 0.458136
587 1 0.524007 0.621669 0.353282
588 1 0.517797 0.675944 0.397509
589 1 0.537692 0.817437 0.473963
590 1 0.544145 0.782966 0.440568
591 1 0.536884 0.613872 0.334233
592 1 0.530558 0.673916 0.380452
593 1 0.550694 0.816983 0.455667
594 1 0.556977 0.768084 0.43737
595 1 0.550015 0.595671 0.328002
596 1 0.543609 0.660638 0.369139
597 1 0.563589 0.801849 0.461987
598 1 0.570118 0.771701 0.432408
599 1 0.562992 0.596079 0.316517
600 1 0.556654 0.650019 0.358643
601 1 0.576706 0.799519 0.45477
602 1 0.582787 0.75634 0.430802
603 1 0.576119 0.592493 0.315444
604 1 0.569427 0.651707 0.350951
605 1 0.589204 0.796866 0.450537
606 1 0.595749 0.758897 0.42743
607 1 0.589222 0.588985 0.305037
608 1 0.58278 0.642826 0.345625
609 1 0.602461 0.787794 0.447059
610 1 0.609131 0.755954 0.417408
611 1 0.602133 0.589021 0.294097
612 1 0.59566 0.642997 0.335349
613 1 0.615737 0.796438 0.421181
614 1 0.622267 0.756264 0.406518
615 1 0.615244 0.581041 0.297282
616 1 0.608791 0.635819 0.338296
617 1 0.628803 0.795284 0.426245
618 1 0.635245 0.761803 0.401214
619 1 0.627922 0.57637 0.305807
620 1 0.621713 0.629911 0.339811
621 1 0.641508 0.808794 0.411832
622 1 0.648014 0.76832 0.394879
623 1 0.641444 0.57743 0.303279
624 1 0.634697 0.631916 0.337945
625 1 0.654592 0.808706 0.398911
626 1 0.660945 0.771121 0.381323
627 1 0.654349 0.575582 0.298471
628 1 0.647767 0.636111 0.329207
629 1 0.667661 0.80732 0.399099
630 1 0.67452 0.770885 0.383876
631 1 0.667514 0.581356 0.292005
632 1 0.660772 0.641894 0.318455
633 1 0.681102 0.811081 0.392441
634 1 0.687466 0.769021 0.366907
635 1 0.680678 0.576007 0.281053
636 1 0.674102 0.641759 0.318987
637 1 0.693789 0.811238 0.384149
638 1 0.700349 0.776986 0.361689
639 1 0.69388 0.571412 0.282524
640 1 0.687155 0.632292 0.312385
641 1 0.706899 0.814981 0.376396
642 1 0.713469 0.774915 0.367096
643 1 0.707289 0.576197 0.29293
644 1 0.700426 0.637844 0.312687
645 1 0.719976 0.815168 0.390305
646 1 0.726701 0.787658 0.366197
647 1 0.720358 0.579951 0.291246
648 1 0.713587 0.637374 0.320031
649 1 0.7334 0.820683 0.377583
650 1 0.739697 0.776549 0.35814
651 1 0.733209 0.579645 0.286571
652 1 0.726811 0.645657 0.317318
653 1 0.74625 0.821144 0.358814
654 1 0.7528 0.787358 0.340423
655 1 0.746206 0.57752 0.28535
656 1 0.739819 0.639454 0.309042
657 1 0.759109 0.830753 0.345189
658 1 0.765638 0.792493 0.325304
659 1 0.759322 0.576539 0.279456
660 1 0.753158 0.646081 0.305711
661 1 0.772333 0.824391 0.332222
662 1 0.778904 0.772396 0.321644
663 1 0.772602 0.573569 0.267721
664 1 0.765885 0.644135 0.291701
665 1 0.785409 0.813136 0.325044
666 1 0.792253 0.780201 0.30872
667 1 0.785506 0.570389 0.265027
668 1 0.779198 0.634237 0.283638
669 1 0.798883 0.814611 0.325034
670 1 0.80544 0.776751 0.321624
671 1 0.799077 0.569549 0.260097
672 1 0.792213 0.63697 0.27512
673 1 0.812081 0.819026 0.33361
674 1 0.818483 0.776854 0.315355
675 1 0.811978 0.572986 0.264596
676 1 0.80538 0.636987 0.282485
677 1 0.825353 0.811171 0.31776
678 1 0.831701 0.772684 0.305619
679 1 0.825044 0.568549 0.25725
680 1 0.818571 0.632429 0.2825
681 1 0.838285 0.806935 0.321419
682 1 0.844903 0.768805 0.3084
683 1 0.838305 0.558991 0.257437
684 1 0.831723 0.62853 0.275792
685 1 0.851384 0.809072 0.315351
686 1 0.857798 0.769716 0.295485
687 1 0.851254 0.556919 0.247768
688 1 0.844948 0.62451 0.267658
689 1 0.86418 0.81168 0.295769
690 1 0.870629 0.777323 0.280707
691 1 0.864339 0.556933 0.244718
692 1 0.857622 0.623361 0.256745
693 1 0.877306 0.8239 0.276227
694 1 0.883419 0.784383 0.255973
695 1 0.87742 0.562208 0.238234
696 1 0.870828 0.628696 0.254081
697 1 0.890081 0.824206 0.252349
698 1 0.896495 0.781126 0.248064
699 1 0.89013 0.566973 0.22829
700 1 0.883884 0.636819 0.238855
701 1 0.902998 0.830414 0.243113
702 1 0.909862 0.794938 0.248632
703 1 0.903176 0.568894 0.241035
704 1 0.89687 0.630571 0.234368
705 1 0.916279 0.841222 0.253384
706 1 0.922728 0.792918 0.254982
707 1 0.915916 0.571871 0.240848
708 1 0.909695 0.641688 0.243375
709 1 0.929203 0.82656 0.25948
710 1 0.935627 0.788557 0.25609
711 1 0.929 0.571593 0.24685
712 1 0.922291 0.639805 0.253958
713 1 0.941967 0.828983 0.257704
714 1 0.948527 0.788776 0.254423
715 1 0.942384 0.568106 0.249944
716 1 0.93567 0.639166 0.247984
717 1 0.954999 0.83346 0.247023
718 1 0.961317 0.790374 0.241829
719 1 0.95527 0.570718 0.241448
720 1 0.948802 0.639102 0.25332
721 1 0.967926 0.837064 0.251558
722 1 0.974719 0.799994 0.255621
723 1 0.968559 0.584751 0.24256
724 1 0.961609 0.643794 0.241971
725 1 0.981101 0.847801 0.255862
726 1 0.987666 0.812568 0.253217
727 1 0.981516 0.588541 0.251108
728 1 0.974933 0.652135 0.251645
729 1 0.994188 0.445559 0.251596
730 1 1 0.375267 0.251598
731 1 0.994111 0.163596 0.251606
732 1 0.988266 0.23346 0.251563
733 1 0.994146 0.867463 0.251624
734 1 1 0.79933 0.251589
735 1 0.994081 0.586105 0.251596
736 1 0.988249 0.658015 0.25161
