ITEM: TIMESTEP
434000
ITEM: NUMBER OF ATOMS
736
ITEM: BOX BOUNDS ss ss ss
-0.0156116 210.045
2.34669 12.4551
-0.257682 10.7693
ITEM: ATOMS id type xs ys zs
1 1 0.00599209 0.442658 0.246014
2 1 0.011787 0.370907 0.246029
3 1 0.00591772 0.162505 0.246029
4 1 9.59371e-05 0.230311 0.246012
5 1 0.00596484 0.863322 0.246026
6 1 0.0117816 0.79365 0.245994
7 1 0.0058843 0.582557 0.246022
8 1 9.92592e-05 0.652557 0.246019
9 1 0.0183231 0.436434 0.246502
10 1 0.0246472 0.3677 0.248383
11 1 0.0184511 0.176608 0.249394
12 1 0.0121535 0.217344 0.246908
13 1 0.030868 0.43669 0.241189
14 1 0.0376316 0.374517 0.238029
15 1 0.0312781 0.179518 0.254894
16 1 0.024703 0.220962 0.251024
17 1 0.0439972 0.437894 0.2358
18 1 0.0506989 0.369651 0.235829
19 1 0.0439799 0.185367 0.251366
20 1 0.0374841 0.226689 0.249636
21 1 0.057262 0.432478 0.237077
22 1 0.0637035 0.362255 0.237535
23 1 0.0570056 0.178151 0.240423
24 1 0.0503532 0.220136 0.2447
25 1 0.0703524 0.435042 0.23794
26 1 0.0767456 0.369576 0.236494
27 1 0.0704221 0.177134 0.249111
28 1 0.0636631 0.219912 0.240365
29 1 0.0833149 0.431189 0.239327
30 1 0.0899707 0.365698 0.249071
31 1 0.0834878 0.18476 0.261335
32 1 0.0770913 0.222086 0.247262
33 1 0.0965854 0.436481 0.245631
34 1 0.10279 0.367672 0.249521
35 1 0.0967558 0.181411 0.278367
36 1 0.0902735 0.218126 0.261528
37 1 0.109383 0.437733 0.240873
38 1 0.116149 0.368278 0.261708
39 1 0.109705 0.181055 0.28348
40 1 0.103124 0.223945 0.270143
41 1 0.122504 0.437333 0.252877
42 1 0.128962 0.369664 0.272234
43 1 0.122524 0.178585 0.297653
44 1 0.116172 0.22516 0.286799
45 1 0.135663 0.429489 0.256723
46 1 0.142284 0.362552 0.268406
47 1 0.13519 0.179126 0.306565
48 1 0.128835 0.222995 0.296384
49 1 0.148782 0.429149 0.263715
50 1 0.155394 0.365376 0.281986
51 1 0.14846 0.177603 0.310549
52 1 0.141879 0.214295 0.298691
53 1 0.161944 0.436672 0.277316
54 1 0.168296 0.363766 0.280272
55 1 0.161626 0.178923 0.319766
56 1 0.155161 0.218658 0.315077
57 1 0.17476 0.434739 0.273144
58 1 0.181167 0.366068 0.277885
59 1 0.174851 0.182805 0.329849
60 1 0.168281 0.215712 0.309196
61 1 0.187897 0.427512 0.258831
62 1 0.194759 0.362276 0.278176
63 1 0.187664 0.178615 0.324855
64 1 0.181423 0.22151 0.317639
65 1 0.201223 0.424701 0.256294
66 1 0.207545 0.351865 0.267312
67 1 0.201221 0.183635 0.322598
68 1 0.194444 0.222353 0.310039
69 1 0.214073 0.418911 0.250859
70 1 0.220675 0.355546 0.280729
71 1 0.21396 0.175606 0.330546
72 1 0.207672 0.218477 0.311128
73 1 0.227112 0.421432 0.264705
74 1 0.233459 0.36087 0.289807
75 1 0.227206 0.179853 0.338805
76 1 0.220672 0.213636 0.322917
77 1 0.239874 0.429855 0.273749
78 1 0.24656 0.362934 0.298912
79 1 0.240318 0.176859 0.344493
80 1 0.233928 0.215477 0.327702
81 1 0.253356 0.425403 0.279179
82 1 0.260029 0.368516 0.291636
83 1 0.253413 0.192728 0.363889
84 1 0.246826 0.224589 0.341867
85 1 0.266532 0.434249 0.270636
86 1 0.27291 0.36865 0.28947
87 1 0.266726 0.19303 0.369061
88 1 0.260292 0.232077 0.349269
89 1 0.279256 0.425714 0.263027
90 1 0.285734 0.367899 0.290923
91 1 0.279639 0.191356 0.355144
92 1 0.273191 0.230874 0.342575
93 1 0.292778 0.426722 0.266287
94 1 0.299282 0.363923 0.293301
95 1 0.292781 0.187584 0.356937
96 1 0.286339 0.230511 0.343135
97 1 0.305926 0.426656 0.270451
98 1 0.312416 0.359955 0.288787
99 1 0.305631 0.191605 0.363615
100 1 0.299324 0.228085 0.340671
101 1 0.318604 0.422557 0.263584
102 1 0.325379 0.362189 0.297944
103 1 0.318789 0.19402 0.374939
104 1 0.312315 0.22995 0.349646
105 1 0.331839 0.423396 0.271141
106 1 0.338464 0.367304 0.300219
107 1 0.331872 0.20221 0.391784
108 1 0.325387 0.233544 0.36401
109 1 0.345099 0.41992 0.273139
110 1 0.351324 0.363817 0.315488
111 1 0.344859 0.207367 0.400892
112 1 0.338575 0.238509 0.370883
113 1 0.358176 0.427911 0.281231
114 1 0.364678 0.372773 0.325769
115 1 0.357988 0.215659 0.422101
116 1 0.351406 0.244302 0.391071
117 1 0.371527 0.422038 0.289509
118 1 0.378176 0.368712 0.330046
119 1 0.370949 0.223803 0.432649
120 1 0.364449 0.256878 0.409529
121 1 0.384928 0.422955 0.296658
122 1 0.391129 0.368979 0.336379
123 1 0.384137 0.225682 0.444815
124 1 0.377583 0.254575 0.414109
125 1 0.398107 0.425915 0.304036
126 1 0.404423 0.376542 0.353955
127 1 0.397241 0.220201 0.458896
128 1 0.3908 0.252941 0.428878
129 1 0.410943 0.426274 0.317464
130 1 0.41739 0.371366 0.358263
131 1 0.410352 0.220879 0.466815
132 1 0.403828 0.25186 0.435415
133 1 0.423977 0.419467 0.321883
134 1 0.430112 0.365502 0.368178
135 1 0.42313 0.217113 0.478024
136 1 0.416773 0.254279 0.443811
137 1 0.436719 0.41451 0.33636
138 1 0.442904 0.348234 0.370787
139 1 0.435952 0.204541 0.469804
140 1 0.429462 0.248349 0.452502
141 1 0.449556 0.395062 0.34372
142 1 0.455418 0.337396 0.399558
143 1 0.448525 0.198133 0.489853
144 1 0.442421 0.234755 0.453296
145 1 0.462491 0.386034 0.396747
146 1 0.468155 0.33322 0.468687
147 1 0.460767 0.195981 0.513397
148 1 0.4549 0.224893 0.467988
149 1 0.474854 0.360272 0.485001
150 1 0.479039 0.334731 0.579915
151 1 0.471289 0.207087 0.634826
152 1 0.46673 0.226744 0.54739
153 1 0.485649 0.380196 0.599557
154 1 0.489197 0.380774 0.711175
155 1 0.481232 0.253959 0.776584
156 1 0.477107 0.252888 0.678809
157 1 0.495647 0.437553 0.72499
158 1 0.498029 0.495739 0.837745
159 1 0.490108 0.375092 0.918356
160 1 0.486676 0.31606 0.820314
161 1 0.502899 0.593783 0.82746
162 1 0.502143 0.722808 0.89264
163 1 0.494677 0.598973 0.998073
164 1 0.494514 0.470592 0.9477
165 1 0.504409 0.846481 0.824544
166 1 0.499002 0.918106 0.755858
167 1 0.492693 0.833781 0.912863
168 1 0.496276 0.731148 0.967702
169 1 0.500095 0.958028 0.625374
170 1 0.494724 0.953403 0.535534
171 1 0.488385 0.926118 0.708062
172 1 0.492449 0.914841 0.806827
173 1 0.495806 0.923481 0.401866
174 1 0.490633 0.880263 0.31795
175 1 0.484192 0.912769 0.491956
176 1 0.488128 0.944411 0.583618
177 1 0.491307 0.81151 0.200459
178 1 0.485881 0.760456 0.122535
179 1 0.479392 0.846444 0.276444
180 1 0.483751 0.880604 0.369618
181 1 0.48655 0.646294 0.0340422
182 1 0.481288 0.55431 -0.00113841
183 1 0.475295 0.713754 0.0919986
184 1 0.479335 0.78488 0.167152
185 1 0.481655 0.406869 0.0121968
186 1 0.4763 0.325246 0.0711067
187 1 0.4703 0.498295 0.00164772
188 1 0.47437 0.60563 0.0071055
189 1 0.477309 0.222346 0.163691
190 1 0.47224 0.160574 0.23565
191 1 0.465493 0.284361 0.113062
192 1 0.469417 0.369886 0.0448743
193 1 0.473258 0.0797847 0.347492
194 1 0.467604 0.0353471 0.425775
195 1 0.461327 0.117658 0.276048
196 1 0.465415 0.187864 0.204218
197 1 0.46792 0.00755653 0.558823
198 1 0.462353 0.040534 0.645429
199 1 0.456041 0.0174028 0.467728
200 1 0.460674 0.0358482 0.375873
201 1 0.464152 0.125018 0.745237
202 1 0.462732 0.271138 0.724579
203 1 0.453787 0.188248 0.652825
204 1 0.455254 0.0502982 0.601446
205 1 0.467893 0.372659 0.731982
206 1 0.469313 0.470788 0.638272
207 1 0.459054 0.424556 0.577651
208 1 0.457037 0.321118 0.659546
209 1 0.475782 0.529047 0.624884
210 1 0.479052 0.588628 0.509609
211 1 0.468298 0.584678 0.445991
212 1 0.464747 0.514964 0.543046
213 1 0.48608 0.602507 0.493185
214 1 0.490503 0.601018 0.380528
215 1 0.47993 0.629726 0.307999
216 1 0.474873 0.623623 0.402311
217 1 0.497763 0.585712 0.376215
218 1 0.502761 0.543511 0.289504
219 1 0.493814 0.546404 0.200717
220 1 0.486809 0.61138 0.263848
221 1 0.511084 0.544541 0.288968
222 1 0.516789 0.474743 0.233427
223 1 0.507514 0.389677 0.144394
224 1 0.501449 0.465002 0.183573
225 1 0.523982 0.498069 0.266358
226 1 0.529997 0.43915 0.216984
227 1 0.521397 0.312951 0.110318
228 1 0.514643 0.370767 0.141169
229 1 0.536691 0.482252 0.241084
230 1 0.542963 0.423764 0.1967
231 1 0.535394 0.282927 0.0902058
232 1 0.528759 0.327571 0.127323
233 1 0.549933 0.471475 0.234969
234 1 0.556273 0.411519 0.193739
235 1 0.549134 0.264931 0.086709
236 1 0.542312 0.300941 0.113242
237 1 0.563144 0.462283 0.232032
238 1 0.569453 0.404237 0.187442
239 1 0.562365 0.259223 0.0821852
240 1 0.555712 0.301932 0.108778
241 1 0.576208 0.460849 0.217742
242 1 0.582638 0.404579 0.185182
243 1 0.575763 0.24341 0.0812071
244 1 0.569147 0.283786 0.101518
245 1 0.589219 0.455124 0.222411
246 1 0.595758 0.395239 0.187032
247 1 0.588552 0.2346 0.095986
248 1 0.582251 0.278073 0.114885
249 1 0.602398 0.449226 0.224894
250 1 0.608941 0.389056 0.195863
251 1 0.602006 0.234332 0.0982934
252 1 0.595343 0.267862 0.114262
253 1 0.615395 0.440198 0.230185
254 1 0.622146 0.381463 0.195102
255 1 0.615048 0.225601 0.0972814
256 1 0.608505 0.264983 0.122129
257 1 0.628715 0.424154 0.233538
258 1 0.635323 0.368232 0.19314
259 1 0.628221 0.223308 0.0866257
260 1 0.621752 0.261775 0.113732
261 1 0.642161 0.421595 0.227686
262 1 0.648779 0.364542 0.184527
263 1 0.641532 0.214984 0.083748
264 1 0.634829 0.256341 0.105557
265 1 0.655268 0.42369 0.211546
266 1 0.661837 0.367522 0.185074
267 1 0.655479 0.208863 0.0881291
268 1 0.648586 0.242268 0.108948
269 1 0.668304 0.432304 0.208873
270 1 0.674882 0.375553 0.182922
271 1 0.668632 0.207258 0.0908562
272 1 0.662081 0.244538 0.108046
273 1 0.681223 0.428975 0.217812
274 1 0.688026 0.368395 0.188335
275 1 0.68152 0.204006 0.0971495
276 1 0.675092 0.240502 0.11386
277 1 0.694686 0.428049 0.212706
278 1 0.701276 0.366619 0.183907
279 1 0.694699 0.197259 0.100168
280 1 0.688153 0.238149 0.118684
281 1 0.7078 0.422183 0.220451
282 1 0.71416 0.365406 0.195905
283 1 0.707936 0.197918 0.10787
284 1 0.701047 0.234816 0.112851
285 1 0.720798 0.42636 0.221201
286 1 0.727317 0.358836 0.193784
287 1 0.720825 0.180408 0.120954
288 1 0.71426 0.233435 0.133161
289 1 0.733818 0.414007 0.217785
290 1 0.740445 0.353933 0.190683
291 1 0.733727 0.187187 0.118196
292 1 0.727093 0.222239 0.140681
293 1 0.747003 0.418551 0.218435
294 1 0.753662 0.359692 0.189292
295 1 0.746924 0.18328 0.111974
296 1 0.740325 0.218544 0.133191
297 1 0.760001 0.425733 0.206301
298 1 0.766668 0.356022 0.195491
299 1 0.759829 0.18389 0.121066
300 1 0.753392 0.226185 0.129204
301 1 0.77315 0.415961 0.218119
302 1 0.779807 0.357048 0.188235
303 1 0.773296 0.180207 0.120502
304 1 0.766474 0.221809 0.140238
305 1 0.786255 0.42374 0.214541
306 1 0.79273 0.363151 0.194709
307 1 0.786687 0.188204 0.124163
308 1 0.77986 0.22132 0.133556
309 1 0.799223 0.429306 0.212949
310 1 0.80577 0.360962 0.193619
311 1 0.79955 0.183187 0.137927
312 1 0.793223 0.224074 0.144746
313 1 0.812479 0.425041 0.217586
314 1 0.819008 0.356247 0.201952
315 1 0.812404 0.181816 0.144058
316 1 0.805953 0.222042 0.149339
317 1 0.825397 0.422712 0.223304
318 1 0.831812 0.360235 0.204625
319 1 0.825708 0.173146 0.149636
320 1 0.81907 0.21317 0.159685
321 1 0.838622 0.421443 0.229343
322 1 0.845196 0.355404 0.212437
323 1 0.838445 0.176615 0.164979
324 1 0.832188 0.216798 0.170247
325 1 0.851266 0.41996 0.223728
326 1 0.857846 0.354165 0.217522
327 1 0.8514 0.169756 0.181803
328 1 0.844995 0.21166 0.178744
329 1 0.864436 0.423463 0.23497
330 1 0.870892 0.357665 0.220699
331 1 0.86425 0.168254 0.191849
332 1 0.857823 0.21403 0.191587
333 1 0.877594 0.423825 0.225829
334 1 0.884191 0.357161 0.210084
335 1 0.877291 0.170202 0.19119
336 1 0.870675 0.214707 0.199585
337 1 0.890888 0.421838 0.23569
338 1 0.897452 0.346359 0.228288
339 1 0.890531 0.165196 0.18877
340 1 0.883952 0.209286 0.186325
341 1 0.903974 0.415692 0.241403
342 1 0.910621 0.349158 0.23957
343 1 0.903736 0.161431 0.200332
344 1 0.897233 0.200858 0.200487
345 1 0.917074 0.419087 0.247083
346 1 0.923437 0.350293 0.233222
347 1 0.917124 0.16098 0.204058
348 1 0.910376 0.201803 0.211364
349 1 0.930258 0.417385 0.244661
350 1 0.936851 0.348661 0.24211
351 1 0.930268 0.157244 0.217216
352 1 0.923596 0.201478 0.216326
353 1 0.943486 0.416759 0.250337
354 1 0.950047 0.347527 0.248344
355 1 0.94351 0.168245 0.230893
356 1 0.93685 0.202389 0.227136
357 1 0.956458 0.418833 0.246626
358 1 0.963147 0.355102 0.240644
359 1 0.956788 0.159744 0.233649
360 1 0.950185 0.202787 0.236454
361 1 0.969855 0.43058 0.243359
362 1 0.976289 0.36778 0.240124
363 1 0.969898 0.173995 0.2334
364 1 0.963271 0.204951 0.237578
365 1 0.982567 0.439726 0.243974
366 1 0.98895 0.374272 0.245692
367 1 0.982867 0.185414 0.242764
368 1 0.976441 0.221293 0.238064
369 1 0.0182538 0.835194 0.243888
370 1 0.0246511 0.794587 0.24211
371 1 0.0183397 0.580654 0.245601
372 1 0.0120467 0.649438 0.246065
373 1 0.031137 0.835913 0.241381
374 1 0.0376922 0.795727 0.245683
375 1 0.0310505 0.584658 0.243026
376 1 0.0246802 0.648062 0.244246
377 1 0.0440712 0.840667 0.254121
378 1 0.0506926 0.796134 0.256686
379 1 0.0439656 0.583518 0.238982
380 1 0.0376306 0.651814 0.242442
381 1 0.0572934 0.835641 0.25424
382 1 0.0637479 0.797007 0.244459
383 1 0.0571209 0.580434 0.24069
384 1 0.0509343 0.649644 0.249156
385 1 0.0701564 0.842483 0.2535
386 1 0.0767707 0.804614 0.240668
387 1 0.0701044 0.579985 0.235247
388 1 0.0636735 0.649048 0.241822
389 1 0.0833178 0.83972 0.237705
390 1 0.0898797 0.799241 0.233071
391 1 0.0834816 0.571653 0.229692
392 1 0.0766388 0.652579 0.229772
393 1 0.0964702 0.833778 0.223969
394 1 0.10315 0.796833 0.214887
395 1 0.0965541 0.582937 0.234887
396 1 0.0899043 0.641622 0.225063
397 1 0.109656 0.841272 0.205745
398 1 0.115992 0.794798 0.193435
399 1 0.109378 0.578625 0.219853
400 1 0.103227 0.647742 0.219352
401 1 0.122702 0.832321 0.185311
402 1 0.12935 0.795438 0.187711
403 1 0.122788 0.579989 0.228531
404 1 0.116281 0.648419 0.208844
405 1 0.135833 0.827539 0.179271
406 1 0.142189 0.7817 0.188247
407 1 0.135781 0.576151 0.231695
408 1 0.129242 0.649387 0.2147
409 1 0.148939 0.824627 0.183524
410 1 0.15548 0.789512 0.197156
411 1 0.148677 0.572657 0.236459
412 1 0.142281 0.64036 0.2204
413 1 0.16201 0.825118 0.186887
414 1 0.168341 0.781125 0.20088
415 1 0.162044 0.577763 0.25564
416 1 0.155486 0.641911 0.237044
417 1 0.174911 0.830133 0.182894
418 1 0.181453 0.788613 0.183577
419 1 0.174958 0.575284 0.243327
420 1 0.168459 0.64257 0.24044
421 1 0.188057 0.823657 0.165008
422 1 0.19471 0.776099 0.176554
423 1 0.187983 0.574453 0.233788
424 1 0.181653 0.644712 0.225029
425 1 0.201244 0.817213 0.165739
426 1 0.207579 0.769984 0.167663
427 1 0.201347 0.563153 0.220959
428 1 0.194766 0.634431 0.210965
429 1 0.214079 0.808126 0.151577
430 1 0.2207 0.760088 0.155973
431 1 0.214099 0.555861 0.212075
432 1 0.207991 0.622569 0.201673
433 1 0.227013 0.802608 0.143959
434 1 0.23348 0.764421 0.163846
435 1 0.227056 0.558012 0.219887
436 1 0.220647 0.619542 0.197531
437 1 0.240112 0.803498 0.142711
438 1 0.246986 0.76456 0.155664
439 1 0.239896 0.566321 0.225512
440 1 0.233421 0.626905 0.203237
441 1 0.25346 0.802774 0.134956
442 1 0.260152 0.763385 0.143527
443 1 0.253281 0.563617 0.230894
444 1 0.246686 0.623074 0.204561
445 1 0.266535 0.796606 0.117766
446 1 0.273134 0.756957 0.129284
447 1 0.266202 0.570628 0.224448
448 1 0.259792 0.630849 0.202745
449 1 0.279436 0.793085 0.111027
450 1 0.285865 0.751562 0.118448
451 1 0.279354 0.555616 0.208154
452 1 0.272909 0.622921 0.186774
453 1 0.292353 0.788145 0.106304
454 1 0.299252 0.75651 0.126483
455 1 0.292745 0.555453 0.201694
456 1 0.285666 0.616845 0.177395
457 1 0.305706 0.788733 0.105199
458 1 0.312075 0.73972 0.115803
459 1 0.305759 0.558467 0.216296
460 1 0.299291 0.616814 0.182728
461 1 0.318458 0.776975 0.0945777
462 1 0.325267 0.743242 0.110747
463 1 0.318558 0.55838 0.212521
464 1 0.312266 0.613245 0.180068
465 1 0.332052 0.76374 0.0838962
466 1 0.338526 0.726068 0.101007
467 1 0.331824 0.547602 0.210993
468 1 0.325083 0.617872 0.18693
469 1 0.34544 0.749505 0.0709995
470 1 0.35212 0.724708 0.0841068
471 1 0.344936 0.548572 0.204943
472 1 0.338551 0.604498 0.176226
473 1 0.358597 0.756589 0.0605749
474 1 0.365125 0.717985 0.0886063
475 1 0.358193 0.547347 0.205631
476 1 0.351856 0.601085 0.167512
477 1 0.371884 0.746398 0.0671779
478 1 0.378649 0.712557 0.0907115
479 1 0.371438 0.537466 0.204387
480 1 0.365031 0.599182 0.173301
481 1 0.385279 0.741974 0.0752243
482 1 0.392071 0.70908 0.0957526
483 1 0.384678 0.534308 0.205446
484 1 0.378158 0.586647 0.16831
485 1 0.398693 0.739894 0.08242
486 1 0.405235 0.701563 0.0995667
487 1 0.398327 0.53971 0.216621
488 1 0.391622 0.590141 0.174154
489 1 0.412059 0.726149 0.0729989
490 1 0.418748 0.69356 0.0986074
491 1 0.411446 0.531784 0.228218
492 1 0.405054 0.589199 0.184211
493 1 0.425282 0.715011 0.075605
494 1 0.431943 0.682692 0.0999353
495 1 0.424818 0.530136 0.234797
496 1 0.418335 0.581464 0.192286
497 1 0.43881 0.704962 0.0836479
498 1 0.445365 0.666463 0.119196
499 1 0.437366 0.525083 0.248218
500 1 0.431141 0.575089 0.195284
501 1 0.452176 0.66583 0.0986722
502 1 0.459038 0.633851 0.134334
503 1 0.45052 0.504639 0.260487
504 1 0.44438 0.565866 0.215684
505 1 0.466895 0.612514 0.146732
506 1 0.473374 0.536186 0.18484
507 1 0.463977 0.475468 0.304172
508 1 0.457806 0.538054 0.242461
509 1 0.480691 0.462061 0.195947
510 1 0.487007 0.397738 0.260874
511 1 0.476843 0.423629 0.374343
512 1 0.471753 0.464556 0.294407
513 1 0.493999 0.366233 0.296317
514 1 0.499337 0.378451 0.388331
515 1 0.488711 0.402184 0.488836
516 1 0.484539 0.409965 0.383878
517 1 0.505858 0.411151 0.425099
518 1 0.509959 0.46742 0.518683
519 1 0.499252 0.432507 0.615923
520 1 0.495546 0.407126 0.499088
521 1 0.515365 0.558589 0.559892
522 1 0.517318 0.662967 0.64704
523 1 0.507078 0.58379 0.726335
524 1 0.50562 0.489838 0.626895
525 1 0.520318 0.792438 0.663418
526 1 0.519 0.934282 0.629337
527 1 0.510585 0.835877 0.766761
528 1 0.511783 0.689773 0.730406
529 1 0.518432 0.986135 0.506189
530 1 0.514423 0.969712 0.404529
531 1 0.506649 0.964306 0.582461
532 1 0.512044 0.934966 0.667729
533 1 0.514094 0.893548 0.294619
534 1 0.510235 0.816968 0.21699
535 1 0.502378 0.918619 0.36324
536 1 0.507611 0.960492 0.44508
537 1 0.509472 0.716634 0.121999
538 1 0.505314 0.641203 0.0491648
539 1 0.498112 0.786477 0.168343
540 1 0.503146 0.852006 0.237602
541 1 0.504235 0.515754 0.00674204
542 1 0.50009 0.39915 0.00602633
543 1 0.49325 0.603705 0.0173486
544 1 0.498599 0.688919 0.0672953
545 1 0.499375 0.283838 0.0782141
546 1 0.495664 0.220434 0.154238
547 1 0.4881 0.36729 0.04481
548 1 0.493569 0.455866 0.0132191
549 1 0.495447 0.145518 0.269991
550 1 0.491452 0.103625 0.365008
551 1 0.483796 0.195035 0.205368
552 1 0.488827 0.247227 0.128414
553 1 0.49082 0.0487943 0.483605
554 1 0.486512 0.0201262 0.576906
555 1 0.479745 0.0704458 0.390357
556 1 0.484827 0.116014 0.315992
557 1 0.485848 0.0239958 0.700719
558 1 0.48175 0.0316424 0.801412
559 1 0.474668 0.0123784 0.609388
560 1 0.480224 0.0289875 0.523098
561 1 0.481368 0.0995899 0.905666
562 1 0.478632 0.20331 0.959474
563 1 0.470201 0.111556 0.807995
564 1 0.475281 0.0372358 0.740614
565 1 0.480737 0.330038 0.992927
566 1 0.481057 0.465817 0.950118
567 1 0.472648 0.349654 0.824449
568 1 0.472901 0.222282 0.878714
569 1 0.48565 0.56222 0.923742
570 1 0.488658 0.620706 0.829443
571 1 0.47952 0.523994 0.72843
572 1 0.477364 0.458272 0.837368
573 1 0.493999 0.67786 0.789283
574 1 0.498035 0.709792 0.697519
575 1 0.48944 0.602388 0.60431
576 1 0.48586 0.581075 0.711652
577 1 0.503563 0.7639 0.646009
578 1 0.507964 0.754653 0.558348
579 1 0.500234 0.617084 0.494304
580 1 0.496349 0.629846 0.597325
581 1 0.513731 0.803633 0.518517
582 1 0.519702 0.780393 0.473447
583 1 0.512107 0.628991 0.386745
584 1 0.506786 0.658228 0.470327
585 1 0.526226 0.809927 0.493692
586 1 0.532384 0.769126 0.451277
587 1 0.524909 0.606373 0.351723
588 1 0.519407 0.668289 0.40061
589 1 0.53885 0.809206 0.462724
590 1 0.544986 0.770304 0.425661
591 1 0.537629 0.596654 0.321922
592 1 0.531556 0.649466 0.372192
593 1 0.551282 0.798071 0.446022
594 1 0.557519 0.753468 0.426159
595 1 0.5502 0.586144 0.31158
596 1 0.544079 0.643704 0.353557
597 1 0.56388 0.790695 0.442184
598 1 0.570455 0.756291 0.416318
599 1 0.563544 0.578847 0.302611
600 1 0.55693 0.638864 0.34388
601 1 0.576891 0.792497 0.433921
602 1 0.583536 0.749395 0.411504
603 1 0.576469 0.577788 0.297412
604 1 0.569941 0.634118 0.334454
605 1 0.590018 0.791551 0.422794
606 1 0.596661 0.760172 0.403332
607 1 0.589473 0.573413 0.294486
608 1 0.583039 0.63199 0.331312
609 1 0.603092 0.800398 0.416102
610 1 0.609706 0.7619 0.388331
611 1 0.602621 0.57231 0.29693
612 1 0.596086 0.639414 0.327566
613 1 0.616264 0.791074 0.413174
614 1 0.622937 0.748322 0.391874
615 1 0.616052 0.561122 0.297462
616 1 0.609646 0.630244 0.324385
617 1 0.629616 0.780298 0.401873
618 1 0.636059 0.738642 0.384814
619 1 0.62907 0.546181 0.301293
620 1 0.622499 0.614857 0.33342
621 1 0.642529 0.772678 0.401536
622 1 0.648944 0.739173 0.378009
623 1 0.642085 0.541254 0.298401
624 1 0.635576 0.599803 0.331628
625 1 0.655344 0.778789 0.381431
626 1 0.661993 0.747112 0.366313
627 1 0.655408 0.557093 0.281317
628 1 0.648888 0.607615 0.319406
629 1 0.668338 0.787179 0.382893
630 1 0.674971 0.75435 0.369096
631 1 0.668504 0.568115 0.271368
632 1 0.662001 0.61896 0.303687
633 1 0.681785 0.785137 0.387391
634 1 0.688232 0.745565 0.362135
635 1 0.68139 0.558307 0.272659
636 1 0.675084 0.6243 0.29617
637 1 0.694769 0.783529 0.373171
638 1 0.701425 0.742408 0.361111
639 1 0.694718 0.560394 0.265854
640 1 0.688127 0.618616 0.293933
641 1 0.708082 0.782846 0.374383
642 1 0.714917 0.758321 0.35112
643 1 0.707627 0.552288 0.270906
644 1 0.701174 0.613798 0.299608
645 1 0.721333 0.79765 0.357589
646 1 0.727851 0.75516 0.340963
647 1 0.7209 0.560823 0.268186
648 1 0.714393 0.621729 0.296461
649 1 0.734177 0.800859 0.344542
650 1 0.740764 0.755131 0.336572
651 1 0.733956 0.552124 0.260634
652 1 0.727321 0.619362 0.28778
653 1 0.747348 0.795839 0.349502
654 1 0.753648 0.754096 0.34062
655 1 0.747021 0.552833 0.269899
656 1 0.740263 0.61638 0.2888
657 1 0.760175 0.794461 0.355012
658 1 0.766641 0.75781 0.330739
659 1 0.759964 0.557867 0.264038
660 1 0.753451 0.616892 0.289551
661 1 0.773034 0.79834 0.344158
662 1 0.779519 0.756624 0.328493
663 1 0.773033 0.555006 0.268404
664 1 0.766647 0.623789 0.287324
665 1 0.786088 0.801754 0.342427
666 1 0.792673 0.760698 0.332543
667 1 0.786243 0.558525 0.258738
668 1 0.77965 0.620178 0.287703
669 1 0.799177 0.80803 0.346086
670 1 0.805941 0.772072 0.330642
671 1 0.799329 0.564227 0.258271
672 1 0.792428 0.625361 0.276609
673 1 0.812433 0.807143 0.347138
674 1 0.8187 0.763748 0.332655
675 1 0.81262 0.563203 0.265968
676 1 0.805892 0.629867 0.281455
677 1 0.824986 0.809551 0.336633
678 1 0.831667 0.77226 0.319489
679 1 0.825381 0.557505 0.267599
680 1 0.818819 0.62369 0.294588
681 1 0.838118 0.814841 0.319487
682 1 0.844751 0.774509 0.305567
683 1 0.838421 0.560182 0.266003
684 1 0.831836 0.623499 0.280662
685 1 0.851355 0.815694 0.304173
686 1 0.857994 0.777917 0.301888
687 1 0.851572 0.558884 0.258886
688 1 0.844901 0.626995 0.281085
689 1 0.864743 0.811876 0.308073
690 1 0.871215 0.780383 0.304809
691 1 0.864619 0.561343 0.260315
692 1 0.858107 0.621845 0.271957
693 1 0.877873 0.818432 0.306326
694 1 0.884491 0.778712 0.279565
695 1 0.877619 0.564727 0.254513
696 1 0.870982 0.633727 0.270415
697 1 0.890998 0.814582 0.29368
698 1 0.897467 0.772639 0.293091
699 1 0.891114 0.562477 0.258888
700 1 0.884541 0.630159 0.266244
701 1 0.903703 0.816779 0.287766
702 1 0.91045 0.779295 0.282466
703 1 0.903865 0.559693 0.268495
704 1 0.89724 0.626719 0.276899
705 1 0.916993 0.821345 0.284031
706 1 0.923563 0.7841 0.27338
707 1 0.917061 0.562626 0.261279
708 1 0.910547 0.631517 0.272951
709 1 0.930183 0.825247 0.273165
710 1 0.936775 0.78218 0.263081
711 1 0.930234 0.561597 0.256582
712 1 0.923599 0.633421 0.26322
713 1 0.943441 0.82123 0.25972
714 1 0.949889 0.773315 0.265911
715 1 0.943594 0.563077 0.253758
716 1 0.93695 0.631834 0.254023
717 1 0.955999 0.820693 0.26113
718 1 0.962618 0.784167 0.259637
719 1 0.95649 0.565005 0.248666
720 1 0.95 0.631881 0.255053
721 1 0.969118 0.828126 0.252176
722 1 0.975744 0.794928 0.250084
723 1 0.969649 0.574642 0.248656
724 1 0.963104 0.637216 0.252413
725 1 0.982095 0.842527 0.250328
726 1 0.988627 0.807447 0.247655
727 1 0.982508 0.584397 0.245524
728 1 0.975957 0.647714 0.246066
729 1 0.995116 0.442039 0.246017
730 1 1.0009 0.372053 0.246019
731 1 0.995039 0.161305 0.246027
732 1 0.989223 0.230865 0.245983
733 1 0.995074 0.862103 0.246046
734 1 1.0009 0.794267 0.24601
735 1 0.995009 0.581972 0.246017
736 1 0.989206 0.653568 0.246031
