ITEM: TIMESTEP
184000
ITEM: NUMBER OF ATOMS
736
ITEM: BOX BOUNDS ss ss ss
-0.0156116 205.203
2.22565 12.4571
-0.219482 11.0201
ITEM: ATOMS id type xs ys zs
1 1 0.00613346 0.449168 0.237961
2 1 0.0120651 0.378279 0.237976
3 1 0.00605734 0.172382 0.237976
4 1 9.82005e-05 0.239373 0.237959
5 1 0.00610557 0.864775 0.237972
6 1 0.0120596 0.795941 0.237941
7 1 0.00602313 0.587385 0.237968
8 1 0.000101601 0.656543 0.237965
9 1 0.0187554 0.443018 0.238439
10 1 0.0252287 0.375111 0.240285
11 1 0.0188864 0.186316 0.241277
12 1 0.0124403 0.226561 0.238838
13 1 0.031547 0.445671 0.255499
14 1 0.0382714 0.373683 0.262759
15 1 0.0316264 0.187567 0.253234
16 1 0.0252859 0.230136 0.242876
17 1 0.0447887 0.442936 0.265956
18 1 0.0512563 0.370688 0.258178
19 1 0.0446818 0.187787 0.266001
20 1 0.0381606 0.226674 0.265339
21 1 0.0580141 0.435994 0.250007
22 1 0.0644967 0.373055 0.251448
23 1 0.05773 0.179272 0.261534
24 1 0.0512593 0.226823 0.26292
25 1 0.07107 0.437274 0.24544
26 1 0.0777907 0.36929 0.24548
27 1 0.0709424 0.178775 0.250841
28 1 0.0642537 0.222573 0.255481
29 1 0.0838849 0.438147 0.239623
30 1 0.0906429 0.374727 0.23656
31 1 0.0843018 0.184119 0.239891
32 1 0.0775035 0.218632 0.245003
33 1 0.0972666 0.445133 0.240774
34 1 0.103702 0.372939 0.24941
35 1 0.0973548 0.18934 0.253651
36 1 0.0907523 0.230365 0.24217
37 1 0.110327 0.437181 0.237737
38 1 0.117114 0.36811 0.244746
39 1 0.110374 0.183376 0.264798
40 1 0.103816 0.228555 0.261531
41 1 0.123686 0.438943 0.249454
42 1 0.129989 0.374103 0.259239
43 1 0.123347 0.177038 0.259154
44 1 0.116986 0.224791 0.260442
45 1 0.136956 0.435567 0.264535
46 1 0.143392 0.369177 0.263011
47 1 0.136627 0.181079 0.276453
48 1 0.130014 0.223965 0.263184
49 1 0.149687 0.433613 0.26168
50 1 0.156189 0.369596 0.267616
51 1 0.149676 0.179242 0.288721
52 1 0.143269 0.223764 0.274949
53 1 0.162959 0.440074 0.270555
54 1 0.169392 0.370423 0.281653
55 1 0.162717 0.185398 0.292502
56 1 0.156346 0.222846 0.282285
57 1 0.175971 0.436395 0.275005
58 1 0.182579 0.369074 0.284362
59 1 0.17596 0.186634 0.298262
60 1 0.169187 0.226388 0.289337
61 1 0.189105 0.435738 0.268545
62 1 0.195643 0.365261 0.280653
63 1 0.189006 0.175811 0.301252
64 1 0.182542 0.230915 0.295411
65 1 0.202136 0.429687 0.25994
66 1 0.208793 0.361905 0.267807
67 1 0.201913 0.173358 0.297596
68 1 0.195385 0.219288 0.302632
69 1 0.215564 0.428485 0.252973
70 1 0.22198 0.361988 0.265124
71 1 0.215352 0.178729 0.299374
72 1 0.20871 0.216093 0.285034
73 1 0.228493 0.427322 0.260051
74 1 0.234967 0.364521 0.266202
75 1 0.228574 0.185187 0.303071
76 1 0.221929 0.220267 0.292259
77 1 0.241398 0.429585 0.252818
78 1 0.248057 0.368561 0.280744
79 1 0.241331 0.181129 0.312592
80 1 0.23491 0.222843 0.298011
81 1 0.254628 0.43415 0.256088
82 1 0.261031 0.373507 0.277951
83 1 0.254524 0.191216 0.328393
84 1 0.247883 0.227165 0.317548
85 1 0.267605 0.436666 0.259573
86 1 0.273923 0.374357 0.285953
87 1 0.267406 0.197092 0.334651
88 1 0.26097 0.234275 0.318691
89 1 0.280565 0.436007 0.265752
90 1 0.287073 0.374227 0.295187
91 1 0.28028 0.199494 0.342136
92 1 0.273879 0.236187 0.327206
93 1 0.293563 0.433636 0.268861
94 1 0.300248 0.378463 0.291017
95 1 0.293482 0.201706 0.365745
96 1 0.287033 0.23887 0.344593
97 1 0.306836 0.435839 0.263237
98 1 0.313193 0.369376 0.282906
99 1 0.306507 0.201168 0.358005
100 1 0.299926 0.242383 0.351902
101 1 0.319735 0.429495 0.258283
102 1 0.326369 0.370335 0.286369
103 1 0.319799 0.195729 0.357833
104 1 0.313316 0.22996 0.334482
105 1 0.332956 0.430775 0.26757
106 1 0.339426 0.377562 0.301319
107 1 0.332951 0.207401 0.365967
108 1 0.326295 0.238965 0.345058
109 1 0.345953 0.445844 0.278349
110 1 0.352515 0.378571 0.299961
111 1 0.34601 0.217421 0.379711
112 1 0.339393 0.248246 0.35475
113 1 0.359183 0.435234 0.268176
114 1 0.365641 0.370455 0.300815
115 1 0.358819 0.21349 0.3793
116 1 0.352447 0.256753 0.365312
117 1 0.372295 0.428268 0.267803
118 1 0.378655 0.369723 0.308912
119 1 0.37171 0.21308 0.393117
120 1 0.365281 0.252785 0.370122
121 1 0.385311 0.426822 0.286598
122 1 0.391808 0.367598 0.325367
123 1 0.384535 0.213898 0.400909
124 1 0.378143 0.246952 0.374915
125 1 0.398358 0.424041 0.298053
126 1 0.4046 0.355542 0.336727
127 1 0.397101 0.198335 0.42275
128 1 0.391024 0.244006 0.392186
129 1 0.411151 0.40473 0.29451
130 1 0.41734 0.3411 0.333052
131 1 0.41007 0.187371 0.432451
132 1 0.403663 0.231026 0.406318
133 1 0.424199 0.391717 0.31132
134 1 0.4304 0.32844 0.352831
135 1 0.422982 0.174822 0.43188
136 1 0.416629 0.219318 0.408656
137 1 0.437261 0.369976 0.319152
138 1 0.443346 0.31226 0.359284
139 1 0.435856 0.166302 0.453989
140 1 0.429645 0.207238 0.426718
141 1 0.449981 0.361706 0.341445
142 1 0.455827 0.306447 0.393234
143 1 0.448892 0.153629 0.475221
144 1 0.442369 0.191443 0.436973
145 1 0.462534 0.350833 0.390678
146 1 0.467977 0.325157 0.474411
147 1 0.461025 0.179575 0.523372
148 1 0.45518 0.199938 0.468194
149 1 0.474392 0.3726 0.495113
150 1 0.478967 0.356262 0.594962
151 1 0.470892 0.230354 0.652184
152 1 0.466584 0.226982 0.563781
153 1 0.485579 0.396555 0.612037
154 1 0.488712 0.416997 0.724034
155 1 0.480495 0.31255 0.789625
156 1 0.476266 0.283118 0.693764
157 1 0.494985 0.48293 0.730347
158 1 0.497309 0.558223 0.837415
159 1 0.489357 0.441475 0.929018
160 1 0.485831 0.375571 0.838053
161 1 0.502222 0.664646 0.823035
162 1 0.500868 0.798987 0.878974
163 1 0.49315 0.674857 0.983645
164 1 0.493661 0.540822 0.947275
165 1 0.502983 0.908891 0.80014
166 1 0.497709 0.975066 0.724776
167 1 0.49083 0.902225 0.895583
168 1 0.494612 0.801358 0.957899
169 1 0.498328 0.997901 0.596814
170 1 0.492862 0.97857 0.515787
171 1 0.486521 0.972222 0.688704
172 1 0.491093 0.96251 0.779069
173 1 0.493805 0.948364 0.389876
174 1 0.488315 0.906006 0.310675
175 1 0.481876 0.941802 0.474533
176 1 0.486069 0.970937 0.56848
177 1 0.489622 0.832443 0.198864
178 1 0.484129 0.760784 0.129568
179 1 0.477495 0.866844 0.269822
180 1 0.48169 0.912001 0.35532
181 1 0.485262 0.650263 0.0537197
182 1 0.479769 0.558165 0.0214272
183 1 0.473497 0.724937 0.0897309
184 1 0.477416 0.798778 0.161866
185 1 0.480817 0.412794 0.0323846
186 1 0.475651 0.337753 0.0895699
187 1 0.468659 0.495006 0.0289978
188 1 0.472885 0.608985 0.0321555
189 1 0.476517 0.242198 0.184024
190 1 0.471344 0.166224 0.255517
191 1 0.464554 0.268519 0.120683
192 1 0.468504 0.363916 0.0683243
193 1 0.472514 0.0988183 0.370093
194 1 0.467345 0.0407066 0.446978
195 1 0.460492 0.104789 0.286753
196 1 0.464421 0.176016 0.214289
197 1 0.467964 0.0246253 0.577474
198 1 0.462607 0.0488698 0.66465
199 1 0.456454 -0.00296373 0.500972
200 1 0.460543 0.0286119 0.397666
201 1 0.463709 0.144787 0.76172
202 1 0.461697 0.284484 0.724589
203 1 0.453624 0.178803 0.652061
204 1 0.455545 0.0409512 0.618693
205 1 0.466634 0.395604 0.730624
206 1 0.468402 0.485128 0.627004
207 1 0.458017 0.419184 0.562073
208 1 0.456125 0.308216 0.640609
209 1 0.474717 0.541131 0.607774
210 1 0.477963 0.582098 0.493951
211 1 0.467376 0.570027 0.435179
212 1 0.463545 0.500648 0.529911
213 1 0.485311 0.605052 0.486188
214 1 0.48961 0.618051 0.387082
215 1 0.479665 0.6434 0.303748
216 1 0.473804 0.617073 0.390494
217 1 0.49681 0.608137 0.383819
218 1 0.502033 0.575235 0.298652
219 1 0.492989 0.568939 0.202821
220 1 0.486791 0.628879 0.269423
221 1 0.509989 0.573924 0.302912
222 1 0.515449 0.510376 0.24076
223 1 0.506826 0.425724 0.166437
224 1 0.500913 0.495578 0.194895
225 1 0.522699 0.542611 0.263677
226 1 0.528708 0.476214 0.218345
227 1 0.520614 0.338044 0.134896
228 1 0.514011 0.393283 0.16457
229 1 0.535385 0.523868 0.239514
230 1 0.541876 0.461219 0.198039
231 1 0.534113 0.307497 0.125683
232 1 0.52753 0.350836 0.146744
233 1 0.54876 0.509017 0.219501
234 1 0.555014 0.439032 0.184774
235 1 0.547398 0.286504 0.110523
236 1 0.5408 0.334843 0.134782
237 1 0.561891 0.482322 0.212415
238 1 0.56836 0.419906 0.180942
239 1 0.560792 0.26281 0.101933
240 1 0.554161 0.311045 0.122842
241 1 0.575003 0.473988 0.20818
242 1 0.581673 0.415014 0.170181
243 1 0.57407 0.254215 0.0951222
244 1 0.567539 0.297976 0.112213
245 1 0.588116 0.468297 0.20617
246 1 0.59458 0.406397 0.179403
247 1 0.587908 0.239913 0.0939088
248 1 0.58117 0.278593 0.10812
249 1 0.601327 0.461372 0.211273
250 1 0.607963 0.400125 0.17634
251 1 0.600723 0.243386 0.0858067
252 1 0.594205 0.284585 0.109983
253 1 0.614795 0.451767 0.216633
254 1 0.621127 0.394226 0.178733
255 1 0.614475 0.237911 0.0808509
256 1 0.607611 0.278734 0.101101
257 1 0.627825 0.450721 0.207774
258 1 0.634347 0.389224 0.179133
259 1 0.627302 0.229706 0.0819085
260 1 0.62095 0.273978 0.101569
261 1 0.640988 0.443543 0.213755
262 1 0.647219 0.377177 0.190539
263 1 0.640697 0.221967 0.0961626
264 1 0.633868 0.264464 0.108211
265 1 0.653887 0.436384 0.218748
266 1 0.660377 0.378569 0.1906
267 1 0.653823 0.220829 0.0992735
268 1 0.647284 0.253737 0.118415
269 1 0.667131 0.434921 0.2239
270 1 0.673453 0.369842 0.200069
271 1 0.667289 0.204373 0.118208
272 1 0.660792 0.247364 0.126617
273 1 0.679961 0.429346 0.232531
274 1 0.686561 0.364451 0.211363
275 1 0.680215 0.19175 0.127113
276 1 0.673755 0.240418 0.139455
277 1 0.693096 0.42977 0.23742
278 1 0.699645 0.371062 0.209602
279 1 0.693209 0.20288 0.144546
280 1 0.686665 0.233946 0.156626
281 1 0.706164 0.436511 0.233204
282 1 0.712663 0.368826 0.209236
283 1 0.706175 0.198194 0.141673
284 1 0.699921 0.239374 0.159555
285 1 0.71925 0.426791 0.229906
286 1 0.725971 0.370526 0.198265
287 1 0.719173 0.192545 0.138647
288 1 0.712679 0.232387 0.152967
289 1 0.732397 0.431974 0.225775
290 1 0.738939 0.360877 0.205583
291 1 0.732103 0.195123 0.136209
292 1 0.725789 0.23201 0.147691
293 1 0.745576 0.41882 0.227817
294 1 0.752273 0.358968 0.204431
295 1 0.745355 0.184197 0.15562
296 1 0.7386 0.224841 0.163107
297 1 0.758848 0.426686 0.2204
298 1 0.76545 0.362239 0.199812
299 1 0.758517 0.176594 0.158872
300 1 0.751749 0.220366 0.169998
301 1 0.771633 0.432303 0.216752
302 1 0.778101 0.368806 0.190845
303 1 0.77159 0.185276 0.144149
304 1 0.764957 0.221995 0.155189
305 1 0.785112 0.423669 0.218172
306 1 0.791412 0.36203 0.19296
307 1 0.78467 0.194043 0.131706
308 1 0.778288 0.22859 0.151793
309 1 0.798284 0.422863 0.224198
310 1 0.804699 0.358287 0.20159
311 1 0.79773 0.184888 0.136445
312 1 0.791208 0.228224 0.145525
313 1 0.811119 0.420464 0.219938
314 1 0.817635 0.361433 0.198215
315 1 0.811013 0.18131 0.137885
316 1 0.804482 0.220557 0.15259
317 1 0.824245 0.421251 0.213175
318 1 0.831015 0.35068 0.199937
319 1 0.824329 0.181376 0.144489
320 1 0.817738 0.218107 0.154016
321 1 0.837394 0.421475 0.210711
322 1 0.843784 0.356466 0.197427
323 1 0.837372 0.169739 0.154619
324 1 0.830833 0.213591 0.161355
325 1 0.850337 0.417492 0.200341
326 1 0.856975 0.351785 0.183728
327 1 0.850453 0.168682 0.164251
328 1 0.844016 0.208172 0.174985
329 1 0.863373 0.423671 0.197017
330 1 0.869858 0.359671 0.188559
331 1 0.863382 0.167251 0.15663
332 1 0.856888 0.212228 0.163485
333 1 0.876706 0.413993 0.203479
334 1 0.882685 0.344746 0.194162
335 1 0.876237 0.160127 0.175199
336 1 0.869905 0.209613 0.165875
337 1 0.889313 0.419368 0.199137
338 1 0.895635 0.351548 0.193255
339 1 0.88918 0.159179 0.17631
340 1 0.882727 0.205811 0.18149
341 1 0.902623 0.416856 0.20105
342 1 0.908799 0.345952 0.189073
343 1 0.902002 0.164319 0.169663
344 1 0.895725 0.207633 0.174125
345 1 0.915473 0.413901 0.203201
346 1 0.921962 0.3473 0.207656
347 1 0.915263 0.159686 0.185787
348 1 0.908775 0.204619 0.178298
349 1 0.928735 0.415986 0.21635
350 1 0.935597 0.349558 0.212764
351 1 0.928834 0.157613 0.189784
352 1 0.92193 0.202926 0.194027
353 1 0.941703 0.424508 0.222316
354 1 0.948416 0.360535 0.221022
355 1 0.942066 0.172475 0.20562
356 1 0.935183 0.205588 0.198521
357 1 0.95472 0.427828 0.224997
358 1 0.961765 0.373138 0.228669
359 1 0.955284 0.182716 0.212731
360 1 0.948629 0.215137 0.218113
361 1 0.96826 0.443048 0.233807
362 1 0.974778 0.37519 0.232182
363 1 0.968404 0.187533 0.224789
364 1 0.961749 0.22742 0.220494
365 1 0.981204 0.446271 0.235959
366 1 0.987738 0.381603 0.237645
367 1 0.981511 0.195015 0.234773
368 1 0.974933 0.230463 0.230161
369 1 0.0186845 0.836985 0.235875
370 1 0.0252327 0.796866 0.23413
371 1 0.0187724 0.585505 0.237556
372 1 0.0123309 0.653462 0.238011
373 1 0.0317366 0.843314 0.238876
374 1 0.0384026 0.800218 0.234089
375 1 0.0316753 0.584945 0.247271
376 1 0.0252625 0.652102 0.236227
377 1 0.0450046 0.835812 0.23193
378 1 0.0514258 0.791998 0.24472
379 1 0.0447046 0.585802 0.260353
380 1 0.0383911 0.65343 0.243339
381 1 0.0578379 0.844026 0.248683
382 1 0.0644722 0.799209 0.248161
383 1 0.0578947 0.579089 0.254821
384 1 0.0515446 0.649921 0.257053
385 1 0.0712458 0.838804 0.247189
386 1 0.0775632 0.793209 0.244249
387 1 0.0710452 0.577944 0.239854
388 1 0.0645148 0.650905 0.242356
389 1 0.0844866 0.830486 0.236049
390 1 0.0909167 0.789556 0.227711
391 1 0.0837191 0.579464 0.231175
392 1 0.0772033 0.647624 0.237238
393 1 0.0975285 0.833992 0.22586
394 1 0.104019 0.792266 0.221787
395 1 0.0971374 0.585052 0.232118
396 1 0.0903788 0.643623 0.226696
397 1 0.110424 0.840435 0.210078
398 1 0.116988 0.797762 0.216607
399 1 0.110338 0.579233 0.23962
400 1 0.103722 0.649181 0.234988
401 1 0.123379 0.837474 0.207344
402 1 0.129889 0.797171 0.225852
403 1 0.123746 0.580139 0.241068
404 1 0.116692 0.650732 0.23515
405 1 0.136866 0.835298 0.227192
406 1 0.143442 0.788014 0.230936
407 1 0.136692 0.577616 0.250358
408 1 0.130087 0.646373 0.242804
409 1 0.149935 0.827474 0.223757
410 1 0.156618 0.787425 0.224317
411 1 0.149874 0.576966 0.251151
412 1 0.143322 0.64493 0.238822
413 1 0.16309 0.835545 0.213618
414 1 0.169481 0.793201 0.219319
415 1 0.162934 0.579354 0.248718
416 1 0.156325 0.644003 0.243474
417 1 0.176005 0.831891 0.2117
418 1 0.182351 0.784946 0.211861
419 1 0.175972 0.575642 0.25446
420 1 0.169542 0.649654 0.2426
421 1 0.188886 0.829807 0.19823
422 1 0.195696 0.790147 0.200692
423 1 0.189373 0.576123 0.244024
424 1 0.182585 0.640172 0.241812
425 1 0.202206 0.820092 0.18421
426 1 0.208699 0.7815 0.192041
427 1 0.20219 0.570313 0.235516
428 1 0.195855 0.643316 0.224994
429 1 0.215189 0.820917 0.188776
430 1 0.221646 0.777283 0.196717
431 1 0.215519 0.568235 0.22835
432 1 0.208896 0.636308 0.217781
433 1 0.228205 0.813073 0.180889
434 1 0.234649 0.771757 0.18167
435 1 0.228448 0.567366 0.240288
436 1 0.221698 0.635343 0.223849
437 1 0.241054 0.810727 0.152659
438 1 0.247715 0.771913 0.158159
439 1 0.241636 0.57017 0.224119
440 1 0.234934 0.636009 0.221431
441 1 0.254153 0.808186 0.14713
442 1 0.260857 0.771653 0.14916
443 1 0.254484 0.567987 0.20851
444 1 0.247927 0.636384 0.193563
445 1 0.267559 0.817114 0.137948
446 1 0.274176 0.771415 0.148727
447 1 0.26786 0.574014 0.222447
448 1 0.26125 0.63113 0.192402
449 1 0.280771 0.814796 0.134783
450 1 0.287403 0.768548 0.150936
451 1 0.280433 0.574064 0.219907
452 1 0.274128 0.641631 0.202231
453 1 0.293845 0.803928 0.129374
454 1 0.300271 0.758523 0.130974
455 1 0.293685 0.56575 0.213922
456 1 0.287208 0.636373 0.199134
457 1 0.306716 0.792151 0.111853
458 1 0.313265 0.74834 0.120519
459 1 0.30711 0.565532 0.209568
460 1 0.300542 0.624194 0.185308
461 1 0.320022 0.789206 0.101539
462 1 0.326663 0.746282 0.113613
463 1 0.31994 0.560171 0.206901
464 1 0.31358 0.619234 0.179133
465 1 0.333189 0.781239 0.0904629
466 1 0.339566 0.74614 0.114729
467 1 0.332989 0.557599 0.205516
468 1 0.326308 0.621792 0.174375
469 1 0.346207 0.791562 0.0948243
470 1 0.352888 0.755225 0.11196
471 1 0.346252 0.565163 0.216025
472 1 0.339595 0.616435 0.174006
473 1 0.359612 0.778994 0.0835334
474 1 0.366311 0.740886 0.106753
475 1 0.359223 0.563656 0.207076
476 1 0.35268 0.62444 0.179711
477 1 0.373123 0.778025 0.0950562
478 1 0.379558 0.735328 0.116302
479 1 0.372445 0.546313 0.199807
480 1 0.365909 0.615117 0.174606
481 1 0.386324 0.765586 0.102673
482 1 0.392997 0.726677 0.122752
483 1 0.385532 0.551503 0.221896
484 1 0.379281 0.60329 0.177582
485 1 0.399602 0.755672 0.107811
486 1 0.406236 0.7184 0.131706
487 1 0.39881 0.541247 0.227027
488 1 0.392315 0.604254 0.192798
489 1 0.412903 0.746658 0.122277
490 1 0.419186 0.700348 0.137376
491 1 0.411538 0.51881 0.222301
492 1 0.405178 0.591776 0.194396
493 1 0.426306 0.731512 0.123133
494 1 0.432742 0.682832 0.145841
495 1 0.424842 0.513324 0.242271
496 1 0.418323 0.573874 0.200924
497 1 0.439535 0.705812 0.132272
498 1 0.446283 0.658298 0.1533
499 1 0.438257 0.491836 0.250867
500 1 0.432004 0.560086 0.213335
501 1 0.453441 0.677591 0.141555
502 1 0.459791 0.624686 0.176263
503 1 0.451163 0.469291 0.26605
504 1 0.445014 0.531656 0.218184
505 1 0.467016 0.603632 0.187392
506 1 0.474543 0.511207 0.195168
507 1 0.464421 0.439309 0.30131
508 1 0.458667 0.50329 0.24479
509 1 0.481429 0.464199 0.213064
510 1 0.487393 0.419191 0.281814
511 1 0.476911 0.416311 0.38658
512 1 0.471432 0.447198 0.293835
513 1 0.494417 0.414543 0.32391
514 1 0.499624 0.41324 0.411388
515 1 0.488862 0.414136 0.50379
516 1 0.484267 0.423742 0.399047
517 1 0.506133 0.464516 0.447787
518 1 0.5103 0.521493 0.540587
519 1 0.498813 0.474729 0.624525
520 1 0.495701 0.426117 0.517733
521 1 0.515527 0.622453 0.570838
522 1 0.517262 0.734483 0.646934
523 1 0.506696 0.650283 0.729256
524 1 0.505255 0.53934 0.637484
525 1 0.51969 0.861043 0.640107
526 1 0.518279 0.99372 0.596103
527 1 0.509406 0.903634 0.73963
528 1 0.511282 0.758656 0.716116
529 1 0.517019 1.03493 0.473484
530 1 0.512675 1.00179 0.375506
531 1 0.505182 1.0096 0.547272
532 1 0.510802 0.993086 0.639569
533 1 0.512565 0.920159 0.269385
534 1 0.508459 0.849538 0.194936
535 1 0.500536 0.945968 0.34191
536 1 0.505857 0.9952 0.418825
537 1 0.508047 0.75065 0.109224
538 1 0.504213 0.664146 0.051584
539 1 0.496096 0.807791 0.158688
540 1 0.501229 0.872955 0.224508
541 1 0.503706 0.533741 0.0167771
542 1 0.499394 0.42564 0.0212399
543 1 0.491823 0.616589 0.0223213
544 1 0.497069 0.700781 0.0697959
545 1 0.499354 0.310392 0.0908273
546 1 0.495323 0.242649 0.172355
547 1 0.487292 0.370834 0.0543491
548 1 0.492463 0.469193 0.0197254
549 1 0.49516 0.178182 0.283184
550 1 0.491213 0.138237 0.37475
551 1 0.483113 0.219322 0.218988
552 1 0.488262 0.267785 0.146689
553 1 0.490998 0.108644 0.494232
554 1 0.486941 0.0822261 0.592174
555 1 0.478989 0.103566 0.420519
556 1 0.4843 0.149294 0.337623
557 1 0.486787 0.0797604 0.713371
558 1 0.482219 0.0923361 0.808013
559 1 0.474685 0.0411423 0.630493
560 1 0.479985 0.068063 0.551309
561 1 0.481655 0.163524 0.915566
562 1 0.478048 0.268082 0.970606
563 1 0.470417 0.140543 0.82058
564 1 0.475526 0.0654078 0.758801
565 1 0.479623 0.393299 0.998738
566 1 0.479801 0.519128 0.938342
567 1 0.471098 0.384325 0.827807
568 1 0.472213 0.257269 0.885837
569 1 0.484066 0.616609 0.907037
570 1 0.487358 0.675873 0.812342
571 1 0.478466 0.550124 0.716593
572 1 0.475928 0.491158 0.829381
573 1 0.492829 0.740117 0.776362
574 1 0.496962 0.759961 0.685454
575 1 0.48841 0.62227 0.601806
576 1 0.484408 0.616616 0.710017
577 1 0.502337 0.81054 0.631641
578 1 0.507007 0.806584 0.549255
579 1 0.499377 0.648332 0.492641
580 1 0.495126 0.669776 0.593575
581 1 0.512578 0.851272 0.505654
582 1 0.518891 0.833905 0.45517
583 1 0.511558 0.662066 0.395073
584 1 0.505886 0.694325 0.478235
585 1 0.525186 0.879647 0.450124
586 1 0.531306 0.835546 0.41502
587 1 0.524268 0.653491 0.340126
588 1 0.518399 0.707618 0.395662
589 1 0.537854 0.866862 0.428359
590 1 0.544102 0.819145 0.402187
591 1 0.536424 0.644813 0.309671
592 1 0.530759 0.709273 0.352925
593 1 0.550674 0.833043 0.420566
594 1 0.557029 0.792206 0.392725
595 1 0.549424 0.628806 0.287185
596 1 0.543223 0.695262 0.332661
597 1 0.563455 0.819964 0.408172
598 1 0.569694 0.776087 0.383292
599 1 0.562427 0.605768 0.281802
600 1 0.556064 0.667483 0.317586
601 1 0.576055 0.804003 0.399672
602 1 0.582503 0.76578 0.37578
603 1 0.575362 0.595627 0.272842
604 1 0.569117 0.659237 0.309747
605 1 0.588982 0.798109 0.405469
606 1 0.59526 0.759524 0.383584
607 1 0.588525 0.582243 0.278722
608 1 0.582016 0.64593 0.306411
609 1 0.601725 0.795919 0.400351
610 1 0.608345 0.763126 0.382731
611 1 0.601853 0.584033 0.280038
612 1 0.595091 0.636254 0.312782
613 1 0.614986 0.789457 0.409167
614 1 0.621586 0.750685 0.388264
615 1 0.614567 0.574632 0.284169
616 1 0.608232 0.634842 0.314864
617 1 0.628233 0.788234 0.40177
618 1 0.634679 0.752242 0.379619
619 1 0.627583 0.567013 0.28125
620 1 0.621184 0.622494 0.319324
621 1 0.641116 0.794842 0.3963
622 1 0.647592 0.755258 0.371311
623 1 0.640895 0.564018 0.277116
624 1 0.634508 0.629492 0.308239
625 1 0.654291 0.785147 0.394117
626 1 0.660983 0.747381 0.377628
627 1 0.653989 0.566192 0.27988
628 1 0.647434 0.626799 0.303142
629 1 0.667356 0.788443 0.381719
630 1 0.673935 0.758576 0.350761
631 1 0.667356 0.564936 0.270624
632 1 0.66091 0.620442 0.310108
633 1 0.680163 0.798373 0.36902
634 1 0.686677 0.758944 0.357674
635 1 0.680064 0.564198 0.279608
636 1 0.673545 0.625593 0.295651
637 1 0.693057 0.798616 0.374023
638 1 0.69973 0.758302 0.36899
639 1 0.692904 0.562135 0.284062
640 1 0.686312 0.625237 0.307661
641 1 0.706461 0.794345 0.387983
642 1 0.712856 0.751709 0.361369
643 1 0.706095 0.567859 0.284863
644 1 0.699637 0.623061 0.30865
645 1 0.719259 0.792253 0.366982
646 1 0.725813 0.758491 0.350459
647 1 0.719429 0.559657 0.282747
648 1 0.712712 0.619235 0.310771
649 1 0.732678 0.802367 0.353372
650 1 0.739167 0.764299 0.341222
651 1 0.732385 0.560097 0.277606
652 1 0.726014 0.623476 0.299064
653 1 0.745658 0.807275 0.345216
654 1 0.752118 0.763437 0.32698
655 1 0.745495 0.553859 0.275014
656 1 0.739089 0.623449 0.298041
657 1 0.758664 0.809414 0.333274
658 1 0.765113 0.770468 0.318584
659 1 0.758732 0.558712 0.268576
660 1 0.752182 0.621135 0.291837
661 1 0.771869 0.805396 0.327031
662 1 0.778488 0.767237 0.31001
663 1 0.771974 0.56576 0.256492
664 1 0.765512 0.630759 0.28145
665 1 0.785094 0.815797 0.318679
666 1 0.791638 0.775748 0.304759
667 1 0.785079 0.558798 0.263186
668 1 0.778587 0.624565 0.277515
669 1 0.798288 0.81821 0.306675
670 1 0.804835 0.773393 0.296524
671 1 0.798065 0.561602 0.264405
672 1 0.791642 0.630475 0.278778
673 1 0.81134 0.814138 0.297062
674 1 0.817782 0.76855 0.278797
675 1 0.811338 0.558884 0.251745
676 1 0.804833 0.62724 0.272091
677 1 0.82433 0.809698 0.282392
678 1 0.830853 0.774235 0.280098
679 1 0.824249 0.564903 0.235489
680 1 0.817858 0.625219 0.25373
681 1 0.837398 0.81054 0.290989
682 1 0.843772 0.763325 0.276601
683 1 0.837421 0.565168 0.238288
684 1 0.830878 0.628841 0.258056
685 1 0.850227 0.805862 0.283947
686 1 0.856607 0.764329 0.275235
687 1 0.850501 0.560152 0.219803
688 1 0.843793 0.624399 0.244331
689 1 0.863447 0.803985 0.28695
690 1 0.869865 0.763067 0.267639
691 1 0.863469 0.55949 0.226408
692 1 0.857137 0.626589 0.238173
693 1 0.876397 0.804031 0.277257
694 1 0.882852 0.769195 0.255562
695 1 0.876553 0.553892 0.228024
696 1 0.869877 0.622179 0.244458
697 1 0.889363 0.813581 0.256011
698 1 0.895857 0.770839 0.251395
699 1 0.889496 0.560443 0.221607
700 1 0.883062 0.62802 0.225961
701 1 0.902373 0.811494 0.251669
702 1 0.908815 0.766398 0.252034
703 1 0.902515 0.557338 0.224571
704 1 0.895712 0.628563 0.225963
705 1 0.915325 0.808101 0.259144
706 1 0.922015 0.770649 0.250166
707 1 0.915386 0.555157 0.224045
708 1 0.908908 0.624785 0.231362
709 1 0.928466 0.81339 0.256535
710 1 0.935041 0.774652 0.250724
711 1 0.928697 0.562096 0.23427
712 1 0.921857 0.625988 0.237434
713 1 0.941422 0.813929 0.254675
714 1 0.948062 0.78023 0.24568
715 1 0.941612 0.568865 0.227822
716 1 0.934991 0.627665 0.236344
717 1 0.95436 0.827991 0.23616
718 1 0.961045 0.789145 0.231834
719 1 0.954899 0.569913 0.228478
720 1 0.948306 0.636958 0.229715
721 1 0.96742 0.835105 0.234146
722 1 0.97422 0.797203 0.241954
723 1 0.968147 0.58227 0.236644
724 1 0.961341 0.645969 0.22856
725 1 0.98072 0.84423 0.242193
726 1 0.987407 0.809572 0.239571
727 1 0.981143 0.589203 0.23748
728 1 0.974438 0.651759 0.238012
729 1 0.994049 0.448556 0.237963
730 1 0.999971 0.379411 0.237965
731 1 0.99397 0.171196 0.237973
732 1 0.988017 0.23992 0.237931
733 1 0.994006 0.863571 0.237992
734 1 0.999972 0.79655 0.237957
735 1 0.99394 0.586807 0.237963
736 1 0.988 0.657542 0.237978
