ITEM: TIMESTEP
122000
ITEM: NUMBER OF ATOMS
736
ITEM: BOX BOUNDS ss ss ss
-0.0156116 203.937
1.83472 12.6084
-0.0195656 11.1447
ITEM: ATOMS id type xs ys zs
1 1 0.00617154 0.462847 0.22166
2 1 0.01214 0.395526 0.221674
3 1 0.00609494 0.199991 0.221674
4 1 9.88102e-05 0.263611 0.221658
5 1 0.00614347 0.857537 0.221671
6 1 0.0121345 0.792167 0.22164
7 1 0.00606052 0.594108 0.221667
8 1 0.000102232 0.659785 0.221664
9 1 0.0188719 0.457007 0.222141
10 1 0.0253853 0.392517 0.223999
11 1 0.0190037 0.213224 0.224998
12 1 0.0125175 0.251444 0.222542
13 1 0.031741 0.453841 0.222474
14 1 0.038277 0.389488 0.22583
15 1 0.0318311 0.210519 0.234187
16 1 0.0254428 0.254839 0.226608
17 1 0.0446277 0.457669 0.215723
18 1 0.0514284 0.394201 0.223993
19 1 0.0450482 0.208254 0.239566
20 1 0.0385725 0.247508 0.230466
21 1 0.0580237 0.45899 0.224239
22 1 0.0644893 0.391234 0.224883
23 1 0.0580452 0.215799 0.234559
24 1 0.0515343 0.251257 0.230527
25 1 0.0711257 0.454289 0.227909
26 1 0.0778656 0.393503 0.229021
27 1 0.0712071 0.214757 0.236172
28 1 0.0646724 0.255644 0.228306
29 1 0.0846075 0.460985 0.234385
30 1 0.0912206 0.395585 0.233075
31 1 0.0846887 0.218871 0.226279
32 1 0.0781026 0.25068 0.236645
33 1 0.0977123 0.465338 0.225582
34 1 0.104152 0.401648 0.226693
35 1 0.0975883 0.218408 0.224637
36 1 0.0910006 0.25768 0.220617
37 1 0.110873 0.468301 0.226884
38 1 0.11739 0.404616 0.229522
39 1 0.11074 0.227712 0.234911
40 1 0.104023 0.264665 0.227195
41 1 0.123768 0.464111 0.22401
42 1 0.130357 0.400067 0.233519
43 1 0.123912 0.22713 0.246372
44 1 0.117342 0.268613 0.235945
45 1 0.136855 0.465145 0.228802
46 1 0.143086 0.396194 0.230719
47 1 0.136665 0.220749 0.254011
48 1 0.130422 0.262344 0.247056
49 1 0.14973 0.460962 0.233027
50 1 0.156279 0.392228 0.243144
51 1 0.149564 0.215136 0.25421
52 1 0.143217 0.257478 0.252722
53 1 0.162902 0.452184 0.225018
54 1 0.169209 0.385242 0.237449
55 1 0.162405 0.213272 0.266685
56 1 0.155822 0.255619 0.256551
57 1 0.175401 0.449254 0.227277
58 1 0.182043 0.386545 0.246855
59 1 0.175788 0.212859 0.283735
60 1 0.169186 0.249871 0.264928
61 1 0.188579 0.452542 0.240618
62 1 0.195268 0.387918 0.265444
63 1 0.188714 0.215557 0.294786
64 1 0.1822 0.252992 0.276025
65 1 0.20177 0.449768 0.245526
66 1 0.208381 0.385544 0.263166
67 1 0.201717 0.216694 0.304884
68 1 0.195357 0.257498 0.295421
69 1 0.215074 0.44512 0.248078
70 1 0.221778 0.387077 0.267254
71 1 0.215056 0.212604 0.312028
72 1 0.208302 0.250376 0.297744
73 1 0.228136 0.452551 0.253781
74 1 0.234796 0.389606 0.282117
75 1 0.22819 0.213167 0.326393
76 1 0.221555 0.254378 0.308673
77 1 0.241321 0.450815 0.264082
78 1 0.247917 0.392749 0.283381
79 1 0.241312 0.219806 0.323449
80 1 0.234685 0.256206 0.318385
81 1 0.254349 0.450969 0.267477
82 1 0.260927 0.391228 0.285495
83 1 0.254411 0.217436 0.320606
84 1 0.247814 0.260282 0.314806
85 1 0.267289 0.454549 0.256641
86 1 0.274098 0.391616 0.277829
87 1 0.26758 0.219379 0.326889
88 1 0.261037 0.252004 0.31742
89 1 0.280392 0.45141 0.255951
90 1 0.287079 0.392288 0.274392
91 1 0.280597 0.227215 0.326414
92 1 0.273947 0.260915 0.316907
93 1 0.293547 0.452329 0.243407
94 1 0.299836 0.38858 0.258082
95 1 0.293318 0.21594 0.327414
96 1 0.286958 0.260788 0.31395
97 1 0.306194 0.453736 0.238665
98 1 0.312747 0.391474 0.256815
99 1 0.306293 0.226364 0.324926
100 1 0.299567 0.260917 0.308623
101 1 0.319442 0.4436 0.231375
102 1 0.325899 0.384884 0.256177
103 1 0.31941 0.226091 0.322323
104 1 0.312832 0.267135 0.311138
105 1 0.332474 0.445484 0.232728
106 1 0.338868 0.391657 0.262956
107 1 0.332485 0.222938 0.33079
108 1 0.32589 0.261988 0.304953
109 1 0.345586 0.441987 0.236684
110 1 0.352144 0.391899 0.281993
111 1 0.345206 0.231339 0.355334
112 1 0.338957 0.264963 0.323435
113 1 0.358659 0.452994 0.26237
114 1 0.364966 0.389671 0.286634
115 1 0.358136 0.23541 0.375616
116 1 0.351716 0.266719 0.346315
117 1 0.371572 0.446415 0.25878
118 1 0.378129 0.389984 0.299597
119 1 0.371303 0.234679 0.380011
120 1 0.364659 0.267455 0.356851
121 1 0.384701 0.448545 0.269377
122 1 0.391205 0.389992 0.301876
123 1 0.384262 0.234394 0.383222
124 1 0.377784 0.273904 0.368979
125 1 0.397817 0.445938 0.281769
126 1 0.404422 0.384813 0.31113
127 1 0.397222 0.223867 0.376422
128 1 0.390816 0.262057 0.369136
129 1 0.41118 0.438493 0.295905
130 1 0.417413 0.370611 0.329192
131 1 0.41016 0.211252 0.380607
132 1 0.403852 0.256268 0.358801
133 1 0.423896 0.429407 0.309879
134 1 0.430133 0.35933 0.32878
135 1 0.422951 0.195173 0.390862
136 1 0.41682 0.244003 0.372002
137 1 0.436961 0.408004 0.30765
138 1 0.443001 0.339235 0.344967
139 1 0.43575 0.1749 0.394774
140 1 0.429882 0.221324 0.375354
141 1 0.449498 0.392531 0.326536
142 1 0.455206 0.340921 0.379251
143 1 0.448838 0.169337 0.417073
144 1 0.442383 0.208565 0.394282
145 1 0.461809 0.390861 0.391118
146 1 0.467332 0.350201 0.46656
147 1 0.460995 0.194303 0.465951
148 1 0.454974 0.219199 0.416002
149 1 0.473605 0.404481 0.489946
150 1 0.478406 0.366386 0.572221
151 1 0.471595 0.213991 0.599853
152 1 0.466811 0.228381 0.516804
153 1 0.485026 0.40818 0.5924
154 1 0.488591 0.399718 0.698231
155 1 0.480779 0.270408 0.744991
156 1 0.476638 0.271939 0.650937
157 1 0.495198 0.453572 0.713746
158 1 0.497714 0.480528 0.829427
159 1 0.489548 0.353203 0.900191
160 1 0.486091 0.325456 0.798693
161 1 0.502788 0.575427 0.849207
162 1 0.501837 0.686607 0.932369
163 1 0.494424 0.542382 1.01542
164 1 0.494047 0.437229 0.939732
165 1 0.503924 0.806087 0.876066
166 1 0.498446 0.879713 0.819456
167 1 0.491662 0.777287 0.965543
168 1 0.495473 0.670246 1.00596
169 1 0.499304 0.937916 0.698903
170 1 0.494021 0.924118 0.599527
171 1 0.48763 0.883087 0.773833
172 1 0.491838 0.856268 0.868059
173 1 0.495408 0.912395 0.467498
174 1 0.490423 0.887592 0.379327
175 1 0.483544 0.892141 0.546903
176 1 0.48748 0.907367 0.65143
177 1 0.491424 0.851297 0.252671
178 1 0.48625 0.809331 0.169588
179 1 0.479475 0.862199 0.322617
180 1 0.483558 0.890608 0.425417
181 1 0.48726 0.71428 0.0724331
182 1 0.482135 0.626311 0.0292358
183 1 0.475281 0.754882 0.12261
184 1 0.479008 0.817883 0.202597
185 1 0.482904 0.483468 0.0269244
186 1 0.477274 0.398571 0.0572236
187 1 0.470872 0.55683 0.0146905
188 1 0.475135 0.658638 0.0378135
189 1 0.477771 0.290504 0.136197
190 1 0.472499 0.211895 0.19708
191 1 0.465967 0.338917 0.0846047
192 1 0.470276 0.428191 0.0387792
193 1 0.473792 0.128229 0.305033
194 1 0.4683 0.0713511 0.37105
195 1 0.461443 0.146023 0.228397
196 1 0.465394 0.233941 0.163768
197 1 0.468845 0.0358121 0.503948
198 1 0.463096 0.0434938 0.58339
199 1 0.456785 0.0236999 0.413716
200 1 0.461295 0.0648636 0.325696
201 1 0.46449 0.113891 0.697548
202 1 0.462148 0.250922 0.696939
203 1 0.453588 0.15952 0.595832
204 1 0.456033 0.039989 0.537067
205 1 0.467156 0.35269 0.712265
206 1 0.468182 0.470199 0.640016
207 1 0.458089 0.409588 0.577476
208 1 0.456329 0.282584 0.62471
209 1 0.474657 0.542736 0.631442
210 1 0.477273 0.601737 0.529509
211 1 0.466642 0.591229 0.471304
212 1 0.462866 0.504315 0.54885
213 1 0.484515 0.629606 0.514536
214 1 0.488818 0.642419 0.407259
215 1 0.478232 0.663839 0.334532
216 1 0.473135 0.64128 0.426905
217 1 0.496334 0.640424 0.395525
218 1 0.501076 0.626341 0.30305
219 1 0.491252 0.620578 0.220151
220 1 0.485323 0.657169 0.29364
221 1 0.508399 0.630248 0.30508
222 1 0.514133 0.567273 0.242456
223 1 0.504976 0.482543 0.194827
224 1 0.498636 0.56334 0.194308
225 1 0.52111 0.594097 0.256812
226 1 0.527069 0.528542 0.203157
227 1 0.518313 0.410647 0.130506
228 1 0.512103 0.460303 0.16409
229 1 0.534092 0.562559 0.22748
230 1 0.5405 0.496666 0.190386
231 1 0.532386 0.362017 0.10494
232 1 0.525556 0.411438 0.132866
233 1 0.54732 0.538759 0.219473
234 1 0.553654 0.480559 0.18012
235 1 0.545985 0.34424 0.0871646
236 1 0.539318 0.387717 0.114905
237 1 0.560535 0.524491 0.210646
238 1 0.566909 0.474251 0.165701
239 1 0.559657 0.331685 0.0732309
240 1 0.553005 0.367525 0.098379
241 1 0.573913 0.521747 0.195062
242 1 0.580125 0.463593 0.15837
243 1 0.573088 0.317047 0.0730103
244 1 0.566528 0.357404 0.0938975
245 1 0.587009 0.514283 0.19063
246 1 0.593133 0.447656 0.152973
247 1 0.586207 0.298835 0.0769734
248 1 0.579823 0.345619 0.0915313
249 1 0.600068 0.493534 0.183566
250 1 0.606399 0.435178 0.152987
251 1 0.599583 0.280534 0.0770239
252 1 0.592989 0.323882 0.0977654
253 1 0.613264 0.487063 0.178939
254 1 0.619912 0.427984 0.155727
255 1 0.613145 0.270584 0.0756457
256 1 0.606722 0.303406 0.0907844
257 1 0.626426 0.476753 0.185695
258 1 0.632846 0.416677 0.152609
259 1 0.626125 0.261186 0.0754054
260 1 0.619889 0.301874 0.0990306
261 1 0.639562 0.468843 0.178164
262 1 0.645974 0.408335 0.154711
263 1 0.639407 0.256978 0.0754077
264 1 0.632683 0.296481 0.0847905
265 1 0.652488 0.461463 0.191564
266 1 0.659032 0.399964 0.176582
267 1 0.652428 0.243544 0.0871058
268 1 0.646044 0.284743 0.0956038
269 1 0.665502 0.456158 0.213255
270 1 0.672116 0.398165 0.18948
271 1 0.665537 0.243681 0.0972451
272 1 0.658872 0.278616 0.116467
273 1 0.678694 0.455134 0.219284
274 1 0.685503 0.387754 0.192381
275 1 0.678927 0.236637 0.107645
276 1 0.672301 0.2776 0.1213
277 1 0.692012 0.444253 0.219326
278 1 0.698562 0.387848 0.188117
279 1 0.692065 0.234051 0.110517
280 1 0.685418 0.2641 0.129373
281 1 0.70544 0.443624 0.212308
282 1 0.711933 0.382902 0.178977
283 1 0.705234 0.22244 0.110626
284 1 0.698696 0.263881 0.129172
285 1 0.718084 0.441433 0.205057
286 1 0.724639 0.381775 0.172856
287 1 0.718388 0.217743 0.110441
288 1 0.711928 0.261231 0.125449
289 1 0.731543 0.441665 0.190455
290 1 0.738118 0.377248 0.171481
291 1 0.731507 0.214059 0.116814
292 1 0.724862 0.252403 0.125171
293 1 0.744853 0.437386 0.194538
294 1 0.751395 0.372904 0.172721
295 1 0.744427 0.206458 0.116379
296 1 0.73804 0.248109 0.129024
297 1 0.757914 0.43417 0.198269
298 1 0.76455 0.37616 0.174785
299 1 0.75755 0.214996 0.108914
300 1 0.750962 0.243459 0.123578
301 1 0.771081 0.441538 0.190739
302 1 0.777726 0.380715 0.170398
303 1 0.770697 0.205052 0.111544
304 1 0.76424 0.249919 0.129482
305 1 0.784094 0.442833 0.188136
306 1 0.790913 0.386104 0.171513
307 1 0.783926 0.213451 0.113068
308 1 0.77721 0.249139 0.121157
309 1 0.797567 0.442888 0.198626
310 1 0.804068 0.379625 0.177479
311 1 0.797287 0.207355 0.125174
312 1 0.790583 0.250307 0.123762
313 1 0.810527 0.438688 0.199938
314 1 0.817197 0.375478 0.18567
315 1 0.810425 0.197466 0.140027
316 1 0.804036 0.240671 0.139598
317 1 0.823698 0.436491 0.203699
318 1 0.830087 0.371509 0.194349
319 1 0.823562 0.198362 0.152234
320 1 0.816906 0.239115 0.157668
321 1 0.836637 0.436543 0.210893
322 1 0.843057 0.374455 0.19868
323 1 0.836671 0.191314 0.168123
324 1 0.830224 0.233998 0.166935
325 1 0.849624 0.431716 0.217276
326 1 0.856121 0.373271 0.20106
327 1 0.849658 0.201133 0.162583
328 1 0.843182 0.233697 0.176024
329 1 0.862638 0.437275 0.214834
330 1 0.869239 0.368336 0.201414
331 1 0.862658 0.198919 0.167308
332 1 0.856076 0.237589 0.171307
333 1 0.875907 0.43161 0.215375
334 1 0.88262 0.369362 0.196815
335 1 0.875523 0.195683 0.159667
336 1 0.869037 0.236922 0.172963
337 1 0.888937 0.438406 0.211487
338 1 0.895636 0.376194 0.200838
339 1 0.888892 0.200935 0.155814
340 1 0.882098 0.239158 0.162976
341 1 0.902233 0.435716 0.207434
342 1 0.908738 0.373698 0.198326
343 1 0.902154 0.196427 0.165793
344 1 0.895475 0.238044 0.174679
345 1 0.915319 0.441852 0.204335
346 1 0.922044 0.373564 0.200417
347 1 0.915411 0.20358 0.168601
348 1 0.908724 0.240186 0.175934
349 1 0.928545 0.444713 0.207575
350 1 0.935254 0.385363 0.206394
351 1 0.928684 0.201834 0.201038
352 1 0.921947 0.235973 0.185649
353 1 0.941786 0.454146 0.204699
354 1 0.948384 0.387233 0.194754
355 1 0.941935 0.204035 0.203191
356 1 0.935185 0.245473 0.212457
357 1 0.954969 0.454056 0.200478
358 1 0.961924 0.391508 0.198046
359 1 0.954943 0.212865 0.19592
360 1 0.948425 0.251073 0.196769
361 1 0.968288 0.454779 0.205681
362 1 0.974704 0.392592 0.215842
363 1 0.968187 0.218437 0.213602
364 1 0.961479 0.252109 0.202257
365 1 0.98117 0.460096 0.219645
366 1 0.987744 0.398683 0.221342
367 1 0.981479 0.221486 0.21845
368 1 0.97486 0.25515 0.213807
369 1 0.0188004 0.831145 0.21956
370 1 0.0253894 0.793046 0.217803
371 1 0.018889 0.592322 0.221252
372 1 0.0124074 0.656859 0.22171
373 1 0.0318815 0.832545 0.2176
374 1 0.0384419 0.794181 0.214062
375 1 0.0318166 0.588414 0.211782
376 1 0.0254193 0.655568 0.219914
377 1 0.0450479 0.828812 0.214606
378 1 0.0515395 0.790873 0.215046
379 1 0.0447828 0.592722 0.215189
380 1 0.0382962 0.659224 0.205342
381 1 0.0577942 0.841644 0.213662
382 1 0.0647261 0.798703 0.227818
383 1 0.0581171 0.594345 0.222548
384 1 0.0514507 0.652148 0.219564
385 1 0.0714043 0.836582 0.223188
386 1 0.0778178 0.800126 0.217168
387 1 0.0713579 0.59223 0.231044
388 1 0.0646166 0.658776 0.228645
389 1 0.0844247 0.844453 0.205722
390 1 0.0909969 0.802374 0.209334
391 1 0.0846024 0.598243 0.225179
392 1 0.0781689 0.661683 0.226573
393 1 0.097699 0.843994 0.201949
394 1 0.104155 0.802949 0.216684
395 1 0.0977833 0.600549 0.226772
396 1 0.0911827 0.665527 0.221848
397 1 0.110689 0.844439 0.205072
398 1 0.11748 0.808444 0.205898
399 1 0.110837 0.602348 0.230512
400 1 0.104363 0.665519 0.229005
401 1 0.124082 0.849197 0.205789
402 1 0.130612 0.807318 0.207525
403 1 0.123828 0.602641 0.22025
404 1 0.117366 0.670301 0.21741
405 1 0.136935 0.846192 0.206589
406 1 0.143441 0.807348 0.21344
407 1 0.136731 0.600158 0.220713
408 1 0.13024 0.670291 0.220353
409 1 0.149944 0.839844 0.200395
410 1 0.156481 0.794081 0.202558
411 1 0.150125 0.593885 0.227054
412 1 0.143217 0.663307 0.223597
413 1 0.163287 0.835363 0.19255
414 1 0.169725 0.785261 0.196074
415 1 0.162855 0.58799 0.214481
416 1 0.156478 0.654666 0.21665
417 1 0.176417 0.82665 0.187388
418 1 0.182639 0.780884 0.183516
419 1 0.175906 0.581677 0.211257
420 1 0.169582 0.649813 0.202379
421 1 0.189014 0.822746 0.176315
422 1 0.195512 0.779052 0.174828
423 1 0.188728 0.578336 0.201151
424 1 0.182488 0.646935 0.20177
425 1 0.202042 0.816212 0.161981
426 1 0.208283 0.772755 0.165223
427 1 0.201748 0.577934 0.208834
428 1 0.195224 0.638392 0.191169
429 1 0.214894 0.812414 0.160379
430 1 0.221566 0.775302 0.170346
431 1 0.214944 0.578239 0.215346
432 1 0.2085 0.638673 0.194382
433 1 0.228007 0.814035 0.156291
434 1 0.234748 0.77592 0.167786
435 1 0.228201 0.581426 0.216303
436 1 0.221509 0.643535 0.204317
437 1 0.241388 0.817049 0.153046
438 1 0.247831 0.774231 0.166628
439 1 0.241278 0.582156 0.221705
440 1 0.234917 0.642949 0.204495
441 1 0.254276 0.812343 0.144443
442 1 0.260959 0.78413 0.161971
443 1 0.254439 0.580444 0.227317
444 1 0.247805 0.640431 0.209688
445 1 0.267625 0.817574 0.14253
446 1 0.274216 0.776205 0.140105
447 1 0.267635 0.582758 0.216718
448 1 0.261187 0.649006 0.204454
449 1 0.280526 0.814804 0.116866
450 1 0.287024 0.776401 0.127872
451 1 0.280373 0.577409 0.206453
452 1 0.274064 0.643532 0.190885
453 1 0.293666 0.805997 0.106475
454 1 0.300078 0.762035 0.119347
455 1 0.29367 0.58172 0.201708
456 1 0.286966 0.643107 0.182349
457 1 0.30652 0.806108 0.10616
458 1 0.313179 0.765687 0.119789
459 1 0.306432 0.580914 0.196505
460 1 0.300108 0.640108 0.176175
461 1 0.319762 0.800641 0.101828
462 1 0.326366 0.759761 0.105431
463 1 0.319693 0.575299 0.184894
464 1 0.313253 0.636695 0.16967
465 1 0.333089 0.79164 0.101137
466 1 0.339373 0.758071 0.115342
467 1 0.332862 0.576512 0.1867
468 1 0.326235 0.632063 0.160314
469 1 0.346021 0.790583 0.0972801
470 1 0.352384 0.751487 0.107335
471 1 0.345915 0.568626 0.186711
472 1 0.339538 0.629459 0.158446
473 1 0.359013 0.791791 0.0962269
474 1 0.365546 0.750889 0.111474
475 1 0.358835 0.570817 0.197287
476 1 0.352342 0.628921 0.162425
477 1 0.372288 0.778717 0.091389
478 1 0.378788 0.74427 0.113564
479 1 0.371797 0.565625 0.204285
480 1 0.36556 0.626184 0.174698
481 1 0.385495 0.784317 0.101578
482 1 0.392306 0.752888 0.119389
483 1 0.385073 0.570694 0.201834
484 1 0.378394 0.622251 0.173119
485 1 0.39911 0.786206 0.11083
486 1 0.405299 0.744458 0.140841
487 1 0.398071 0.57037 0.225661
488 1 0.391766 0.628157 0.184002
489 1 0.412205 0.769535 0.130259
490 1 0.418882 0.726373 0.154662
491 1 0.411343 0.561768 0.235238
492 1 0.404822 0.621432 0.202612
493 1 0.425682 0.753337 0.130388
494 1 0.432219 0.711231 0.146605
495 1 0.424584 0.547607 0.248512
496 1 0.418256 0.611955 0.219926
497 1 0.439045 0.731332 0.127992
498 1 0.4456 0.684098 0.148873
499 1 0.438053 0.521969 0.24365
500 1 0.43161 0.592406 0.209631
501 1 0.452636 0.686078 0.132282
502 1 0.459178 0.640632 0.160632
503 1 0.450781 0.507071 0.263106
504 1 0.444953 0.570461 0.221414
505 1 0.466449 0.636346 0.166009
506 1 0.472501 0.570564 0.200229
507 1 0.463146 0.487437 0.315391
508 1 0.457727 0.543755 0.251333
509 1 0.479607 0.525834 0.200311
510 1 0.485645 0.460223 0.260586
511 1 0.475585 0.457586 0.385537
512 1 0.470453 0.502434 0.303991
513 1 0.492709 0.444416 0.298888
514 1 0.498491 0.449261 0.378736
515 1 0.487584 0.447073 0.47925
516 1 0.48286 0.456848 0.377684
517 1 0.505075 0.492638 0.428686
518 1 0.509606 0.529654 0.521301
519 1 0.498635 0.475023 0.605775
520 1 0.494918 0.456997 0.49223
521 1 0.515492 0.594169 0.574024
522 1 0.517569 0.679625 0.67754
523 1 0.50723 0.585973 0.742807
524 1 0.50535 0.528851 0.628816
525 1 0.520864 0.801819 0.689746
526 1 0.519243 0.932569 0.677208
527 1 0.510233 0.813757 0.811081
528 1 0.511797 0.683782 0.757743
529 1 0.518048 0.996091 0.562441
530 1 0.513776 0.981694 0.466164
531 1 0.506122 0.967355 0.649244
532 1 0.511914 0.922422 0.728136
533 1 0.513981 0.916481 0.355591
534 1 0.510376 0.843788 0.272977
535 1 0.502049 0.931497 0.431781
536 1 0.507045 0.976895 0.514928
537 1 0.510382 0.772248 0.169485
538 1 0.506315 0.704997 0.0972747
539 1 0.498238 0.828842 0.219938
540 1 0.503322 0.874412 0.30533
541 1 0.505886 0.589849 0.0384956
542 1 0.501666 0.491419 0.0134683
543 1 0.49422 0.680236 0.0485726
544 1 0.499514 0.745724 0.114521
545 1 0.501376 0.363361 0.0562434
546 1 0.497139 0.286909 0.13346
547 1 0.489272 0.444764 0.0463447
548 1 0.4949 0.539318 0.0196841
549 1 0.497188 0.217155 0.239158
550 1 0.49293 0.158723 0.318126
551 1 0.484643 0.256011 0.168853
552 1 0.490362 0.323455 0.106215
553 1 0.492378 0.113097 0.435069
554 1 0.487911 0.0652937 0.516714
555 1 0.480393 0.110201 0.345405
556 1 0.485754 0.166857 0.275586
557 1 0.487525 0.0562692 0.640525
558 1 0.483275 0.0625291 0.734559
559 1 0.475655 0.0381981 0.546028
560 1 0.48124 0.0585481 0.465287
561 1 0.482953 0.113761 0.850972
562 1 0.478922 0.189647 0.921474
563 1 0.47112 0.108252 0.757196
564 1 0.476626 0.0535337 0.677891
565 1 0.480238 0.307584 0.967969
566 1 0.480246 0.428694 0.937409
567 1 0.471723 0.335394 0.808706
568 1 0.472564 0.200412 0.84653
569 1 0.484794 0.523304 0.934721
570 1 0.487837 0.599113 0.846449
571 1 0.478445 0.517946 0.739145
572 1 0.476254 0.427909 0.826809
573 1 0.49358 0.659005 0.81948
574 1 0.497461 0.696193 0.728282
575 1 0.487888 0.624051 0.624179
576 1 0.484628 0.581868 0.732355
577 1 0.502885 0.755679 0.691286
578 1 0.507322 0.766999 0.601966
579 1 0.498575 0.660861 0.513616
580 1 0.494563 0.656494 0.618499
581 1 0.512905 0.818103 0.567958
582 1 0.518646 0.810583 0.504593
583 1 0.510224 0.689393 0.410395
584 1 0.505271 0.704664 0.500833
585 1 0.524816 0.849408 0.513162
586 1 0.530711 0.818057 0.4609
587 1 0.522845 0.678403 0.349312
588 1 0.517149 0.720513 0.417207
589 1 0.537242 0.850611 0.463327
590 1 0.543193 0.819305 0.419037
591 1 0.535283 0.663088 0.313678
592 1 0.529539 0.716014 0.370407
593 1 0.54964 0.848819 0.429339
594 1 0.555788 0.805358 0.394934
595 1 0.548204 0.650501 0.292021
596 1 0.542184 0.711013 0.335239
597 1 0.562276 0.83431 0.405024
598 1 0.568617 0.800697 0.375812
599 1 0.561319 0.641003 0.281866
600 1 0.555069 0.697543 0.317057
601 1 0.57506 0.836244 0.390849
602 1 0.581397 0.79841 0.369376
603 1 0.574323 0.636564 0.2642
604 1 0.567789 0.687719 0.307662
605 1 0.588052 0.842894 0.38274
606 1 0.594334 0.795435 0.357746
607 1 0.587132 0.622711 0.260006
608 1 0.580904 0.686805 0.292936
609 1 0.600839 0.823853 0.365982
610 1 0.607311 0.785026 0.345791
611 1 0.600236 0.616704 0.250182
612 1 0.594072 0.677263 0.284587
613 1 0.613705 0.820206 0.36392
614 1 0.620074 0.775779 0.339476
615 1 0.613218 0.613531 0.235696
616 1 0.606838 0.670001 0.27694
617 1 0.626606 0.815761 0.352553
618 1 0.633056 0.769095 0.327226
619 1 0.626442 0.591877 0.250222
620 1 0.620046 0.65499 0.269376
621 1 0.639638 0.803297 0.342457
622 1 0.646004 0.763644 0.328024
623 1 0.63955 0.584805 0.241507
624 1 0.633227 0.644969 0.270391
625 1 0.652361 0.802779 0.354203
626 1 0.65921 0.767803 0.346889
627 1 0.652355 0.58396 0.250142
628 1 0.645984 0.6373 0.272967
629 1 0.665816 0.800901 0.366776
630 1 0.672517 0.765506 0.347408
631 1 0.665556 0.581279 0.267211
632 1 0.658987 0.642205 0.288532
633 1 0.679246 0.809288 0.345237
634 1 0.685593 0.770472 0.333677
635 1 0.6789 0.576245 0.278306
636 1 0.672244 0.636047 0.297096
637 1 0.69225 0.800552 0.341468
638 1 0.698873 0.760827 0.33388
639 1 0.692195 0.567948 0.275309
640 1 0.68574 0.631554 0.299166
641 1 0.705358 0.796258 0.344788
642 1 0.711942 0.75804 0.325093
643 1 0.705537 0.570452 0.260453
644 1 0.698899 0.626106 0.286424
645 1 0.718513 0.794309 0.32379
646 1 0.725018 0.758019 0.304875
647 1 0.718328 0.567351 0.256178
648 1 0.711753 0.6309 0.278376
649 1 0.731609 0.796877 0.308799
650 1 0.738003 0.760493 0.286422
651 1 0.731635 0.564452 0.246935
652 1 0.724947 0.624696 0.271122
653 1 0.744506 0.800328 0.30493
654 1 0.751156 0.762361 0.295046
655 1 0.744673 0.567995 0.23304
656 1 0.737989 0.625701 0.25584
657 1 0.757622 0.799765 0.309392
658 1 0.764324 0.766302 0.29244
659 1 0.757977 0.56604 0.233968
660 1 0.751332 0.628244 0.256469
661 1 0.771066 0.808024 0.305439
662 1 0.777477 0.766782 0.295056
663 1 0.771167 0.569622 0.229548
664 1 0.764717 0.629535 0.253276
665 1 0.78421 0.805117 0.298164
666 1 0.790587 0.76031 0.286026
667 1 0.784035 0.568356 0.232989
668 1 0.777848 0.634056 0.253835
669 1 0.797154 0.802381 0.298878
670 1 0.803649 0.76659 0.289068
671 1 0.797237 0.565593 0.238541
672 1 0.790653 0.627456 0.25089
673 1 0.810133 0.808214 0.295195
674 1 0.816763 0.768896 0.288613
675 1 0.810324 0.568726 0.235551
676 1 0.803635 0.628945 0.255016
677 1 0.823425 0.809547 0.299782
678 1 0.829926 0.762999 0.286185
679 1 0.823495 0.564623 0.244003
680 1 0.816689 0.632489 0.25894
681 1 0.836732 0.796881 0.293608
682 1 0.843216 0.756416 0.283646
683 1 0.836569 0.56385 0.247569
684 1 0.830112 0.625642 0.262045
685 1 0.849726 0.796637 0.287884
686 1 0.85668 0.764879 0.280085
687 1 0.849763 0.562722 0.24849
688 1 0.843068 0.623224 0.25632
689 1 0.862928 0.802343 0.296176
690 1 0.869801 0.770561 0.285053
691 1 0.862962 0.566184 0.250992
692 1 0.856184 0.62962 0.262293
693 1 0.876308 0.809297 0.297617
694 1 0.882681 0.765723 0.290457
695 1 0.876092 0.565511 0.24317
696 1 0.869697 0.630254 0.260974
697 1 0.889243 0.812631 0.272832
698 1 0.895849 0.774254 0.250236
699 1 0.889197 0.571914 0.23573
700 1 0.882701 0.633601 0.254964
701 1 0.902602 0.809308 0.253123
702 1 0.909116 0.777435 0.235627
703 1 0.902258 0.57161 0.227942
704 1 0.895682 0.633133 0.233784
705 1 0.915417 0.818642 0.23986
706 1 0.921957 0.782352 0.226676
707 1 0.915437 0.576818 0.223325
708 1 0.908646 0.636908 0.228021
709 1 0.928378 0.82352 0.224556
710 1 0.934871 0.783746 0.225245
711 1 0.928364 0.577898 0.205434
712 1 0.921924 0.644163 0.217257
713 1 0.941304 0.828384 0.218343
714 1 0.947874 0.792406 0.214388
715 1 0.941755 0.587047 0.203981
716 1 0.93496 0.648286 0.20817
717 1 0.954457 0.827149 0.226415
718 1 0.96121 0.79013 0.228388
719 1 0.954728 0.588868 0.207898
720 1 0.948163 0.652913 0.209501
721 1 0.967733 0.838808 0.23186
722 1 0.974143 0.793365 0.22568
723 1 0.967912 0.58955 0.211259
724 1 0.961398 0.652259 0.219542
725 1 0.980683 0.838025 0.22592
726 1 0.987411 0.805112 0.22328
727 1 0.981109 0.595834 0.221176
728 1 0.974363 0.655242 0.221711
729 1 0.994095 0.462266 0.221662
730 1 1.00005 0.396601 0.221664
731 1 0.994016 0.198866 0.221672
732 1 0.988026 0.264131 0.221629
733 1 0.994051 0.856393 0.221691
734 1 1.00006 0.792746 0.221656
735 1 0.993985 0.593559 0.221662
736 1 0.988008 0.660734 0.221676
