ITEM: TIMESTEP
248000
ITEM: NUMBER OF ATOMS
736
ITEM: BOX BOUNDS ss ss ss
-0.0156116 206.424
2.00188 12.461
-0.209794 10.8514
ITEM: ATOMS id type xs ys zs
1 1 0.0060972 0.460785 0.240925
2 1 0.0119938 0.391439 0.240939
3 1 0.00602153 0.190024 0.240939
4 1 9.762e-05 0.255557 0.240922
5 1 0.00606947 0.867346 0.240936
6 1 0.0119883 0.80001 0.240904
7 1 0.00598753 0.595994 0.240932
8 1 0.000101 0.663647 0.240929
9 1 0.0186446 0.45477 0.24141
10 1 0.0250796 0.38834 0.243285
11 1 0.0187748 0.203655 0.244294
12 1 0.0123667 0.243025 0.241815
13 1 0.0314353 0.450458 0.254728
14 1 0.0379944 0.387823 0.264953
15 1 0.0315499 0.206577 0.249161
16 1 0.0251364 0.246522 0.245919
17 1 0.0445939 0.453766 0.254585
18 1 0.0513438 0.386646 0.261245
19 1 0.0447542 0.204674 0.26243
20 1 0.038151 0.243543 0.260758
21 1 0.057796 0.459654 0.256864
22 1 0.0643258 0.394773 0.262741
23 1 0.0579146 0.204659 0.272119
24 1 0.0512254 0.243482 0.266365
25 1 0.0706564 0.461891 0.265962
26 1 0.0774149 0.397938 0.274585
27 1 0.0707308 0.210146 0.270747
28 1 0.0642025 0.248852 0.270569
29 1 0.0840026 0.462834 0.27378
30 1 0.0905931 0.395324 0.273733
31 1 0.0839318 0.205984 0.275718
32 1 0.0772376 0.251745 0.278637
33 1 0.0972794 0.463692 0.273985
34 1 0.103735 0.400151 0.280061
35 1 0.0972631 0.210435 0.27125
36 1 0.090686 0.249884 0.26917
37 1 0.110358 0.463233 0.272966
38 1 0.116861 0.39941 0.275609
39 1 0.11036 0.21662 0.28513
40 1 0.103643 0.258851 0.275458
41 1 0.123399 0.464669 0.265069
42 1 0.130173 0.405559 0.275511
43 1 0.123845 0.220952 0.300838
44 1 0.116924 0.25684 0.287901
45 1 0.136492 0.473838 0.272468
46 1 0.142838 0.403997 0.284506
47 1 0.136815 0.218464 0.308044
48 1 0.130289 0.260854 0.303179
49 1 0.149552 0.461606 0.260399
50 1 0.156177 0.398079 0.271263
51 1 0.149753 0.229398 0.32132
52 1 0.143322 0.263963 0.312754
53 1 0.1626 0.46573 0.26004
54 1 0.169429 0.400687 0.280234
55 1 0.162808 0.22246 0.319172
56 1 0.156331 0.261153 0.300854
57 1 0.175685 0.465202 0.261017
58 1 0.182269 0.404758 0.274066
59 1 0.176013 0.2154 0.299773
60 1 0.169481 0.262958 0.308375
61 1 0.18885 0.473056 0.262197
62 1 0.195726 0.404986 0.275966
63 1 0.189105 0.223359 0.301222
64 1 0.182312 0.260551 0.292454
65 1 0.202296 0.470533 0.260173
66 1 0.208692 0.404288 0.262128
67 1 0.202025 0.228605 0.314613
68 1 0.195517 0.268792 0.300324
69 1 0.21532 0.46711 0.242368
70 1 0.221872 0.403505 0.264538
71 1 0.215175 0.233926 0.324504
72 1 0.208596 0.268179 0.303456
73 1 0.228298 0.462683 0.244116
74 1 0.234839 0.409358 0.272475
75 1 0.2283 0.226828 0.327129
76 1 0.221682 0.266145 0.313632
77 1 0.241491 0.470476 0.25831
78 1 0.247699 0.412575 0.288265
79 1 0.241066 0.243354 0.355693
80 1 0.23457 0.275972 0.323102
81 1 0.254204 0.468187 0.262743
82 1 0.260687 0.404027 0.277731
83 1 0.254051 0.247713 0.360424
84 1 0.247613 0.287036 0.349316
85 1 0.267614 0.463096 0.253554
86 1 0.273999 0.396515 0.28521
87 1 0.267201 0.224983 0.345101
88 1 0.26074 0.273741 0.332731
89 1 0.280792 0.461066 0.258319
90 1 0.287433 0.398595 0.278477
91 1 0.280789 0.224758 0.342729
92 1 0.273808 0.263698 0.331874
93 1 0.293757 0.463326 0.263559
94 1 0.300278 0.404408 0.287285
95 1 0.293726 0.235624 0.360706
96 1 0.287225 0.267443 0.335197
97 1 0.306528 0.468714 0.262057
98 1 0.313084 0.410586 0.28686
99 1 0.306554 0.241566 0.365773
100 1 0.300068 0.27624 0.343336
101 1 0.319374 0.480128 0.276725
102 1 0.325924 0.419902 0.312535
103 1 0.319578 0.247444 0.375563
104 1 0.313116 0.282301 0.347646
105 1 0.332604 0.471894 0.279949
106 1 0.339117 0.408396 0.306356
107 1 0.332387 0.247911 0.379964
108 1 0.326156 0.2866 0.36094
109 1 0.345574 0.456361 0.271849
110 1 0.35202 0.39641 0.302487
111 1 0.345285 0.238715 0.379103
112 1 0.339055 0.282246 0.363346
113 1 0.358466 0.456267 0.278432
114 1 0.364995 0.397743 0.313924
115 1 0.358272 0.229256 0.37792
116 1 0.351838 0.266286 0.35483
117 1 0.371506 0.458185 0.288813
118 1 0.377736 0.400821 0.320242
119 1 0.371476 0.234323 0.395031
120 1 0.364856 0.271346 0.372746
121 1 0.384752 0.462798 0.297421
122 1 0.391053 0.397952 0.326764
123 1 0.384367 0.235032 0.397906
124 1 0.377899 0.273681 0.381125
125 1 0.397855 0.451804 0.291716
126 1 0.404178 0.390513 0.329281
127 1 0.397072 0.229012 0.409881
128 1 0.390855 0.273269 0.389359
129 1 0.410764 0.446791 0.302878
130 1 0.416898 0.383157 0.340406
131 1 0.409898 0.221915 0.428338
132 1 0.403756 0.264553 0.396834
133 1 0.42339 0.431292 0.316868
134 1 0.429698 0.370772 0.358656
135 1 0.42284 0.205539 0.432772
136 1 0.416539 0.255914 0.412241
137 1 0.43638 0.422895 0.334184
138 1 0.442683 0.359662 0.375494
139 1 0.435771 0.196951 0.432986
140 1 0.429063 0.239757 0.413254
141 1 0.449038 0.410908 0.355226
142 1 0.455429 0.352452 0.404065
143 1 0.448347 0.190804 0.451675
144 1 0.442216 0.232049 0.425614
145 1 0.462035 0.395223 0.406546
146 1 0.467635 0.352064 0.487723
147 1 0.460867 0.200777 0.498318
148 1 0.454867 0.22813 0.447776
149 1 0.47423 0.390756 0.495471
150 1 0.478668 0.364076 0.590157
151 1 0.47116 0.223402 0.641446
152 1 0.466466 0.236668 0.555699
153 1 0.485229 0.407979 0.606576
154 1 0.48886 0.407937 0.71749
155 1 0.480867 0.291756 0.782079
156 1 0.477049 0.27606 0.688426
157 1 0.495208 0.461343 0.727199
158 1 0.497867 0.51061 0.842016
159 1 0.489768 0.381245 0.923505
160 1 0.48615 0.354296 0.824076
161 1 0.502955 0.606383 0.843317
162 1 0.502107 0.730475 0.913263
163 1 0.494249 0.600872 1.01018
164 1 0.494153 0.477825 0.952985
165 1 0.504104 0.849292 0.848295
166 1 0.498739 0.917731 0.788387
167 1 0.49221 0.830489 0.945859
168 1 0.496088 0.727011 0.994649
169 1 0.498986 0.965203 0.662065
170 1 0.493807 0.952812 0.574653
171 1 0.487698 0.913394 0.743506
172 1 0.49186 0.89434 0.837789
173 1 0.494393 0.937844 0.443377
174 1 0.488912 0.892884 0.359706
175 1 0.482876 0.911921 0.529411
176 1 0.487303 0.930704 0.620788
177 1 0.490162 0.837159 0.238642
178 1 0.484864 0.782298 0.162691
179 1 0.47784 0.853495 0.318683
180 1 0.482187 0.893063 0.408164
181 1 0.485648 0.690138 0.0600339
182 1 0.480246 0.608433 0.0201773
183 1 0.474079 0.755674 0.111851
184 1 0.47802 0.808439 0.197997
185 1 0.480838 0.468559 0.0186425
186 1 0.47566 0.373844 0.0625628
187 1 0.469323 0.541885 0.016635
188 1 0.473358 0.6495 0.0300477
189 1 0.476484 0.267657 0.153875
190 1 0.471519 0.20018 0.221787
191 1 0.464424 0.321071 0.103437
192 1 0.468533 0.406757 0.0453851
193 1 0.472786 0.127651 0.334741
194 1 0.46727 0.0624093 0.412069
195 1 0.460643 0.137482 0.257782
196 1 0.464348 0.222015 0.192134
197 1 0.468 0.0371202 0.549887
198 1 0.462393 0.0478547 0.635073
199 1 0.456045 0.0287226 0.458353
200 1 0.460505 0.0604544 0.36097
201 1 0.463662 0.136271 0.742681
202 1 0.462231 0.27692 0.724129
203 1 0.453485 0.187078 0.631144
204 1 0.455222 0.0612143 0.585313
205 1 0.467108 0.383097 0.733973
206 1 0.468584 0.486068 0.644091
207 1 0.458737 0.440618 0.581069
208 1 0.456732 0.321576 0.642325
209 1 0.474902 0.551236 0.627531
210 1 0.478059 0.601932 0.51804
211 1 0.467836 0.584779 0.454886
212 1 0.464026 0.528257 0.547332
213 1 0.485366 0.613529 0.500322
214 1 0.489739 0.60712 0.386741
215 1 0.479854 0.640853 0.313387
216 1 0.474455 0.628139 0.407515
217 1 0.496956 0.605371 0.388661
218 1 0.502521 0.571043 0.296439
219 1 0.493083 0.563615 0.199845
220 1 0.486972 0.616603 0.264707
221 1 0.509821 0.593949 0.303109
222 1 0.51543 0.54357 0.241293
223 1 0.506958 0.441561 0.154399
224 1 0.500081 0.503097 0.188549
225 1 0.522733 0.565243 0.268424
226 1 0.528691 0.503091 0.221797
227 1 0.521071 0.398682 0.108693
228 1 0.514357 0.438911 0.150896
229 1 0.535772 0.539941 0.266462
230 1 0.542136 0.480255 0.215665
231 1 0.534164 0.36804 0.0995047
232 1 0.527867 0.411873 0.125207
233 1 0.549135 0.525548 0.255194
234 1 0.555406 0.470893 0.201281
235 1 0.547808 0.340586 0.0961611
236 1 0.541145 0.377706 0.123527
237 1 0.562305 0.52006 0.22772
238 1 0.568483 0.461244 0.186078
239 1 0.561236 0.319728 0.0916208
240 1 0.554682 0.362494 0.112422
241 1 0.575564 0.504164 0.21975
242 1 0.58207 0.445384 0.17617
243 1 0.574903 0.299412 0.0863923
244 1 0.568113 0.343386 0.105045
245 1 0.58885 0.502944 0.212088
246 1 0.595118 0.441835 0.167522
247 1 0.588295 0.286579 0.0824206
248 1 0.581711 0.320565 0.104834
249 1 0.601539 0.487166 0.20137
250 1 0.608375 0.427995 0.164668
251 1 0.601289 0.283955 0.0713349
252 1 0.594863 0.322245 0.0967884
253 1 0.614786 0.484062 0.200712
254 1 0.621354 0.440507 0.158451
255 1 0.61479 0.280008 0.0672627
256 1 0.608108 0.30941 0.0865355
257 1 0.627983 0.489291 0.194983
258 1 0.634726 0.437159 0.156356
259 1 0.628162 0.272394 0.075799
260 1 0.621551 0.315884 0.090363
261 1 0.641366 0.493099 0.192944
262 1 0.647802 0.425385 0.172618
263 1 0.64125 0.264225 0.0901818
264 1 0.634751 0.308148 0.0993328
265 1 0.654191 0.48326 0.201886
266 1 0.660876 0.426377 0.172485
267 1 0.65392 0.257068 0.0941254
268 1 0.647512 0.296893 0.114769
269 1 0.667201 0.476187 0.207956
270 1 0.673935 0.421669 0.17628
271 1 0.66711 0.271183 0.0874691
272 1 0.660393 0.299255 0.107911
273 1 0.680379 0.474317 0.2072
274 1 0.687097 0.405953 0.190503
275 1 0.680277 0.251967 0.098884
276 1 0.673644 0.303374 0.105899
277 1 0.693526 0.465547 0.214091
278 1 0.700039 0.405354 0.192625
279 1 0.693472 0.237883 0.117903
280 1 0.686888 0.27774 0.126905
281 1 0.706742 0.457863 0.218289
282 1 0.713399 0.389029 0.20895
283 1 0.706212 0.228031 0.124481
284 1 0.69974 0.276219 0.138233
285 1 0.719852 0.455169 0.227986
286 1 0.726197 0.391467 0.209572
287 1 0.719523 0.212918 0.136602
288 1 0.712869 0.258961 0.146923
289 1 0.732829 0.446732 0.225471
290 1 0.739273 0.386118 0.204398
291 1 0.732743 0.21548 0.147134
292 1 0.726009 0.25587 0.16113
293 1 0.745839 0.449725 0.223781
294 1 0.75228 0.378166 0.206773
295 1 0.745729 0.207301 0.149543
296 1 0.73932 0.250051 0.157034
297 1 0.758827 0.44149 0.223234
298 1 0.765276 0.381332 0.19948
299 1 0.758732 0.205828 0.148216
300 1 0.752113 0.238978 0.165225
301 1 0.771658 0.44794 0.218158
302 1 0.778166 0.384065 0.208995
303 1 0.771672 0.204659 0.157501
304 1 0.765064 0.247525 0.159841
305 1 0.784752 0.444903 0.222424
306 1 0.791383 0.380909 0.211065
307 1 0.784469 0.208496 0.172684
308 1 0.777997 0.24917 0.17789
309 1 0.79809 0.444479 0.23288
310 1 0.804753 0.377208 0.213735
311 1 0.798006 0.199735 0.192375
312 1 0.79145 0.245012 0.186215
313 1 0.811331 0.443952 0.223923
314 1 0.817887 0.376842 0.218465
315 1 0.811432 0.189952 0.184007
316 1 0.804763 0.233785 0.197634
317 1 0.824296 0.44107 0.231566
318 1 0.830928 0.379609 0.225198
319 1 0.824589 0.198362 0.184789
320 1 0.817973 0.237103 0.191549
321 1 0.837426 0.442771 0.231735
322 1 0.843898 0.378653 0.221718
323 1 0.837657 0.196915 0.191604
324 1 0.831201 0.238884 0.19643
325 1 0.850654 0.439794 0.222739
326 1 0.85732 0.37466 0.211372
327 1 0.85071 0.18981 0.195902
328 1 0.844141 0.23406 0.198378
329 1 0.863836 0.438563 0.219694
330 1 0.870325 0.378539 0.215614
331 1 0.863695 0.189742 0.205661
332 1 0.85722 0.235868 0.199656
333 1 0.876943 0.438336 0.221183
334 1 0.883704 0.374161 0.214046
335 1 0.876981 0.188827 0.196539
336 1 0.870535 0.227975 0.201252
337 1 0.89002 0.439929 0.217069
338 1 0.896476 0.373209 0.210488
339 1 0.8903 0.190709 0.197727
340 1 0.883685 0.230151 0.195113
341 1 0.903259 0.443109 0.210552
342 1 0.909814 0.37107 0.211129
343 1 0.903148 0.194739 0.21054
344 1 0.89673 0.231527 0.210072
345 1 0.916373 0.439062 0.216127
346 1 0.923026 0.376975 0.215964
347 1 0.916403 0.189431 0.214061
348 1 0.909561 0.229828 0.210848
349 1 0.929444 0.440541 0.216011
350 1 0.936073 0.377605 0.208974
351 1 0.929349 0.191312 0.200866
352 1 0.92289 0.231053 0.21218
353 1 0.942499 0.444645 0.212002
354 1 0.949059 0.378971 0.203331
355 1 0.942336 0.193702 0.205292
356 1 0.935744 0.238115 0.204008
357 1 0.955345 0.444271 0.21404
358 1 0.96205 0.37869 0.22208
359 1 0.95577 0.190529 0.195802
360 1 0.949156 0.232393 0.19851
361 1 0.968607 0.44826 0.235017
362 1 0.975262 0.388418 0.235052
363 1 0.968823 0.197335 0.218859
364 1 0.962322 0.235709 0.212601
365 1 0.98165 0.457952 0.23889
366 1 0.988145 0.394691 0.240603
367 1 0.981955 0.212165 0.237685
368 1 0.975416 0.246842 0.232998
369 1 0.018574 0.840161 0.238805
370 1 0.0250836 0.800915 0.237032
371 1 0.0186615 0.594155 0.240512
372 1 0.012258 0.660632 0.240975
373 1 0.0315544 0.846092 0.235676
374 1 0.0379467 0.803006 0.237064
375 1 0.0314592 0.592295 0.250109
376 1 0.0251131 0.659302 0.239162
377 1 0.0447419 0.842272 0.235214
378 1 0.0512888 0.802064 0.237658
379 1 0.044715 0.594818 0.245814
380 1 0.0383115 0.658702 0.245816
381 1 0.0577959 0.847139 0.229886
382 1 0.0643169 0.805281 0.22049
383 1 0.0577667 0.593459 0.243794
384 1 0.0512309 0.662763 0.237647
385 1 0.0709464 0.84887 0.218572
386 1 0.0774592 0.805268 0.219856
387 1 0.0707803 0.601529 0.253329
388 1 0.0643601 0.66238 0.238387
389 1 0.0838529 0.846051 0.212919
390 1 0.0904857 0.805597 0.224934
391 1 0.0840379 0.600583 0.256951
392 1 0.0772913 0.666381 0.244087
393 1 0.0971812 0.850414 0.215273
394 1 0.103628 0.814066 0.220556
395 1 0.0970624 0.601127 0.26413
396 1 0.0904991 0.665316 0.257101
397 1 0.110173 0.849913 0.194775
398 1 0.116727 0.808283 0.19024
399 1 0.11019 0.599198 0.248746
400 1 0.103552 0.668831 0.249081
401 1 0.123556 0.849194 0.182945
402 1 0.130067 0.808764 0.191267
403 1 0.123672 0.604716 0.242123
404 1 0.11683 0.67157 0.228966
405 1 0.13656 0.847496 0.170885
406 1 0.143009 0.806595 0.179328
407 1 0.136595 0.609884 0.24297
408 1 0.130134 0.670277 0.22089
409 1 0.149784 0.840739 0.160637
410 1 0.156112 0.796103 0.164437
411 1 0.14972 0.599439 0.232052
412 1 0.143115 0.669532 0.219943
413 1 0.162457 0.833044 0.138658
414 1 0.169188 0.799079 0.153129
415 1 0.162706 0.600546 0.216283
416 1 0.156138 0.659231 0.205692
417 1 0.175606 0.843338 0.143009
418 1 0.182098 0.801061 0.162988
419 1 0.175565 0.602636 0.22155
420 1 0.169163 0.662596 0.19838
421 1 0.18897 0.837108 0.148473
422 1 0.195551 0.796328 0.155065
423 1 0.188852 0.60076 0.222179
424 1 0.182334 0.668069 0.200687
425 1 0.202121 0.836726 0.139739
426 1 0.208681 0.802239 0.148379
427 1 0.201951 0.608761 0.227413
428 1 0.195058 0.668173 0.208042
429 1 0.215088 0.838547 0.132442
430 1 0.221523 0.796943 0.14618
431 1 0.21509 0.603408 0.208952
432 1 0.208556 0.667837 0.193042
433 1 0.228114 0.82791 0.121046
434 1 0.234528 0.790313 0.131051
435 1 0.228131 0.594071 0.207099
436 1 0.221865 0.663195 0.189421
437 1 0.241185 0.833131 0.120233
438 1 0.247628 0.788725 0.141865
439 1 0.24123 0.600965 0.213581
440 1 0.234682 0.656508 0.180936
441 1 0.25439 0.823132 0.126366
442 1 0.261183 0.784905 0.138584
443 1 0.254272 0.596949 0.213222
444 1 0.24787 0.663486 0.196287
445 1 0.267537 0.820555 0.118162
446 1 0.274213 0.787529 0.14007
447 1 0.267401 0.594766 0.209816
448 1 0.260841 0.658093 0.191214
449 1 0.280777 0.822033 0.122342
450 1 0.287043 0.782982 0.140422
451 1 0.280936 0.591299 0.209431
452 1 0.273956 0.652052 0.187311
453 1 0.29352 0.826545 0.124183
454 1 0.299922 0.787394 0.138614
455 1 0.293484 0.592749 0.207592
456 1 0.287087 0.652886 0.185318
457 1 0.306357 0.834281 0.130156
458 1 0.31288 0.800172 0.147937
459 1 0.306596 0.597095 0.211717
460 1 0.299996 0.654012 0.186429
461 1 0.319361 0.839024 0.1343
462 1 0.325919 0.799288 0.151672
463 1 0.319706 0.60599 0.215931
464 1 0.31302 0.660093 0.188402
465 1 0.33291 0.825282 0.130818
466 1 0.339469 0.784433 0.146566
467 1 0.332623 0.594283 0.221184
468 1 0.326351 0.660353 0.192089
469 1 0.346055 0.817196 0.126606
470 1 0.352382 0.775907 0.130026
471 1 0.345534 0.587271 0.216857
472 1 0.339309 0.651639 0.193988
473 1 0.358766 0.80801 0.103956
474 1 0.365438 0.769903 0.134917
475 1 0.35846 0.580606 0.218139
476 1 0.351804 0.644964 0.191318
477 1 0.37192 0.79876 0.112989
478 1 0.378364 0.764223 0.134906
479 1 0.371502 0.580113 0.224249
480 1 0.365063 0.640775 0.194168
481 1 0.38503 0.799046 0.111323
482 1 0.391613 0.76013 0.128491
483 1 0.384898 0.582853 0.236299
484 1 0.378331 0.638648 0.197695
485 1 0.398417 0.786699 0.11193
486 1 0.405032 0.746305 0.13477
487 1 0.398052 0.571964 0.224769
488 1 0.39159 0.634314 0.197434
489 1 0.411757 0.777957 0.12226
490 1 0.418413 0.741225 0.142344
491 1 0.411033 0.564705 0.233011
492 1 0.404688 0.622768 0.200181
493 1 0.42532 0.763599 0.130809
494 1 0.43186 0.717546 0.156937
495 1 0.424263 0.548179 0.250797
496 1 0.417765 0.616727 0.21245
497 1 0.43856 0.742374 0.128855
498 1 0.445405 0.700282 0.148866
499 1 0.43713 0.537326 0.264617
500 1 0.431138 0.598727 0.228615
501 1 0.452557 0.701668 0.139632
502 1 0.458766 0.645025 0.172245
503 1 0.449911 0.515108 0.273749
504 1 0.444074 0.577974 0.22906
505 1 0.466273 0.625698 0.181612
506 1 0.473633 0.543574 0.191541
507 1 0.463707 0.474852 0.31096
508 1 0.457207 0.54116 0.253034
509 1 0.48043 0.473078 0.209507
510 1 0.487258 0.414367 0.275351
511 1 0.476195 0.432351 0.381228
512 1 0.471092 0.473512 0.296165
513 1 0.493864 0.393151 0.306113
514 1 0.499546 0.410264 0.396523
515 1 0.488323 0.421901 0.488674
516 1 0.483664 0.431425 0.386848
517 1 0.506034 0.457444 0.439911
518 1 0.509538 0.525378 0.532867
519 1 0.499015 0.468672 0.618852
520 1 0.495746 0.430316 0.505191
521 1 0.51466 0.606951 0.573415
522 1 0.517505 0.702511 0.656564
523 1 0.507148 0.609591 0.740225
524 1 0.505207 0.530622 0.63832
525 1 0.519974 0.830512 0.672789
526 1 0.518515 0.965139 0.644201
527 1 0.510504 0.849431 0.784808
528 1 0.51229 0.714501 0.744189
529 1 0.517513 1.02093 0.524414
530 1 0.513091 1.00582 0.428947
531 1 0.50545 0.986789 0.615908
532 1 0.511506 0.95276 0.69544
533 1 0.513 0.934082 0.315132
534 1 0.508998 0.857423 0.237134
535 1 0.500905 0.943822 0.399513
536 1 0.50622 0.991064 0.482108
537 1 0.508697 0.763743 0.14244
538 1 0.504497 0.68952 0.0705279
539 1 0.496924 0.811756 0.202237
540 1 0.502208 0.874253 0.281889
541 1 0.504084 0.567988 0.0171368
542 1 0.499698 0.464446 0.00390349
543 1 0.492409 0.654847 0.0294382
544 1 0.497629 0.72338 0.0990781
545 1 0.498889 0.348941 0.0693163
546 1 0.495334 0.267587 0.137844
547 1 0.487387 0.421365 0.0368127
548 1 0.492702 0.506845 0.00697935
549 1 0.495598 0.198799 0.246929
550 1 0.491142 0.157888 0.335803
551 1 0.483197 0.237277 0.18185
552 1 0.488195 0.298332 0.111359
553 1 0.49099 0.118895 0.455303
554 1 0.486885 0.0814709 0.550019
555 1 0.479333 0.11893 0.374294
556 1 0.484352 0.164431 0.297165
557 1 0.486378 0.0678121 0.678754
558 1 0.482245 0.0679414 0.776666
559 1 0.474671 0.0422921 0.593883
560 1 0.480121 0.0720896 0.502566
561 1 0.481668 0.122173 0.891541
562 1 0.478479 0.223851 0.957173
563 1 0.470078 0.121552 0.803671
564 1 0.475487 0.0529821 0.721528
565 1 0.480434 0.346363 0.990586
566 1 0.480714 0.46746 0.942861
567 1 0.47172 0.367252 0.828615
568 1 0.47255 0.230352 0.875784
569 1 0.485083 0.563639 0.927376
570 1 0.488381 0.629609 0.843874
571 1 0.478751 0.541123 0.734446
572 1 0.476465 0.470095 0.842697
573 1 0.49374 0.69452 0.809257
574 1 0.497692 0.717966 0.712886
575 1 0.488765 0.619601 0.614634
576 1 0.485199 0.599392 0.729859
577 1 0.50306 0.781407 0.670901
578 1 0.507119 0.788135 0.579961
579 1 0.499446 0.657891 0.49367
580 1 0.495449 0.66227 0.601501
581 1 0.51298 0.84028 0.535533
582 1 0.519111 0.82547 0.483023
583 1 0.511305 0.677195 0.398467
584 1 0.50591 0.706842 0.479168
585 1 0.52539 0.86065 0.498879
586 1 0.531468 0.824669 0.46422
587 1 0.523715 0.661841 0.360199
588 1 0.517881 0.716481 0.409847
589 1 0.538121 0.858671 0.475642
590 1 0.544051 0.811244 0.450438
591 1 0.536797 0.651497 0.344133
592 1 0.530661 0.71364 0.384629
593 1 0.550574 0.826552 0.474752
594 1 0.556997 0.79011 0.447868
595 1 0.549747 0.636535 0.337685
596 1 0.543644 0.697654 0.378635
597 1 0.563517 0.816607 0.460111
598 1 0.569799 0.780554 0.429297
599 1 0.563134 0.623843 0.314531
600 1 0.556695 0.679716 0.365451
601 1 0.576507 0.811261 0.445506
602 1 0.583058 0.780635 0.413633
603 1 0.576143 0.614911 0.298622
604 1 0.569829 0.671198 0.345796
605 1 0.589673 0.810344 0.427789
606 1 0.595937 0.780688 0.393982
607 1 0.589217 0.612896 0.284298
608 1 0.582723 0.665503 0.329464
609 1 0.602237 0.815366 0.417227
610 1 0.60847 0.773082 0.391597
611 1 0.601896 0.601441 0.278099
612 1 0.595537 0.663615 0.311178
613 1 0.615136 0.814435 0.410029
614 1 0.621699 0.780283 0.382691
615 1 0.615114 0.59862 0.275813
616 1 0.608605 0.656858 0.312127
617 1 0.628176 0.812709 0.393252
618 1 0.634521 0.78193 0.361726
619 1 0.628333 0.604741 0.267199
620 1 0.621667 0.660037 0.306365
621 1 0.640973 0.814964 0.379374
622 1 0.647539 0.787298 0.360497
623 1 0.641306 0.60969 0.263197
624 1 0.634585 0.666209 0.293977
625 1 0.654326 0.823711 0.385219
626 1 0.660853 0.784208 0.367688
627 1 0.654193 0.602711 0.265475
628 1 0.647769 0.665813 0.297057
629 1 0.667383 0.826777 0.387797
630 1 0.673821 0.788527 0.360392
631 1 0.667316 0.599795 0.269814
632 1 0.660887 0.662035 0.302995
633 1 0.680451 0.826496 0.368107
634 1 0.6874 0.79006 0.343485
635 1 0.680641 0.602005 0.26361
636 1 0.673798 0.657963 0.29516
637 1 0.694243 0.825915 0.352526
638 1 0.700592 0.78897 0.332253
639 1 0.693617 0.601466 0.259694
640 1 0.687231 0.665161 0.286961
641 1 0.706911 0.82951 0.340775
642 1 0.713348 0.790982 0.3235
643 1 0.706701 0.589911 0.258288
644 1 0.700296 0.656511 0.274954
645 1 0.719943 0.827269 0.333812
646 1 0.726448 0.791111 0.318956
647 1 0.719499 0.589863 0.261549
648 1 0.713111 0.65174 0.278197
649 1 0.73309 0.821975 0.335503
650 1 0.739174 0.780287 0.320143
651 1 0.732769 0.582515 0.261005
652 1 0.726349 0.650367 0.271804
653 1 0.745802 0.815283 0.33042
654 1 0.752243 0.774107 0.31841
655 1 0.745889 0.58245 0.261731
656 1 0.739412 0.644576 0.284342
657 1 0.758637 0.81296 0.324549
658 1 0.76523 0.776366 0.308228
659 1 0.758793 0.572919 0.26514
660 1 0.752247 0.642975 0.278144
661 1 0.771936 0.822175 0.316922
662 1 0.778679 0.783072 0.297907
663 1 0.771801 0.578867 0.260183
664 1 0.765209 0.641228 0.280042
665 1 0.785064 0.833351 0.297718
666 1 0.791643 0.787866 0.298417
667 1 0.785156 0.578491 0.262328
668 1 0.77815 0.641772 0.271418
669 1 0.798293 0.824609 0.297381
670 1 0.804737 0.783548 0.292011
671 1 0.798185 0.57854 0.269008
672 1 0.791753 0.641044 0.279507
673 1 0.811473 0.827769 0.286379
674 1 0.818025 0.786969 0.276786
675 1 0.811384 0.578749 0.254981
676 1 0.805069 0.641087 0.277213
677 1 0.824569 0.833535 0.282519
678 1 0.831065 0.788329 0.285959
679 1 0.824424 0.581699 0.250881
680 1 0.817906 0.647124 0.259267
681 1 0.837594 0.82483 0.292786
682 1 0.844284 0.788892 0.281643
683 1 0.83768 0.580736 0.251656
684 1 0.831033 0.644261 0.272325
685 1 0.850869 0.831071 0.282216
686 1 0.857523 0.783262 0.275615
687 1 0.850882 0.578274 0.255402
688 1 0.844496 0.646519 0.26255
689 1 0.864131 0.82733 0.274806
690 1 0.870512 0.786471 0.259339
691 1 0.863785 0.57721 0.236221
692 1 0.857468 0.641159 0.254115
693 1 0.876801 0.829312 0.262813
694 1 0.883444 0.788052 0.262518
695 1 0.877055 0.576444 0.240333
696 1 0.870512 0.643527 0.24547
697 1 0.890098 0.824662 0.274457
698 1 0.896421 0.785328 0.267441
699 1 0.889879 0.575464 0.231312
700 1 0.883427 0.642913 0.247979
701 1 0.903078 0.830772 0.269866
702 1 0.909441 0.788273 0.24939
703 1 0.903082 0.582825 0.230771
704 1 0.896401 0.642264 0.242442
705 1 0.91588 0.829545 0.257548
706 1 0.922493 0.786862 0.254539
707 1 0.91609 0.576789 0.221762
708 1 0.909694 0.645831 0.231791
709 1 0.929029 0.826418 0.258735
710 1 0.935532 0.78732 0.251817
711 1 0.92935 0.582328 0.220342
712 1 0.922394 0.649015 0.228371
713 1 0.942136 0.822595 0.256227
714 1 0.948597 0.788812 0.252654
715 1 0.942004 0.584706 0.212219
716 1 0.935404 0.647741 0.222009
717 1 0.954842 0.83206 0.265917
718 1 0.961614 0.795814 0.257839
719 1 0.955588 0.585956 0.215685
720 1 0.948693 0.646662 0.219346
721 1 0.967937 0.842974 0.259546
722 1 0.974708 0.801244 0.244982
723 1 0.968507 0.590762 0.238985
724 1 0.961911 0.650678 0.238673
725 1 0.981169 0.847247 0.245225
726 1 0.987816 0.813344 0.24256
727 1 0.98159 0.597772 0.240436
728 1 0.974924 0.658966 0.240976
729 1 0.994419 0.460187 0.240927
730 1 1.00031 0.392547 0.240929
731 1 0.994341 0.188865 0.240937
732 1 0.988423 0.256093 0.240894
733 1 0.994376 0.866167 0.240956
734 1 1.00031 0.800606 0.24092
735 1 0.994311 0.595429 0.240927
736 1 0.988406 0.664624 0.240941
