ITEM: TIMESTEP
310000
ITEM: NUMBER OF ATOMS
736
ITEM: BOX BOUNDS ss ss ss
-0.0156116 207.561
2.3983 12.4972
-0.163218 10.8672
ITEM: ATOMS id type xs ys zs
1 1 0.0060638 0.437967 0.237374
2 1 0.0119281 0.366148 0.237388
3 1 0.00598854 0.157549 0.237388
4 1 9.70852e-05 0.225419 0.237372
5 1 0.00603623 0.859029 0.237385
6 1 0.0119226 0.789291 0.237353
7 1 0.00595473 0.577999 0.237381
8 1 0.000100447 0.648064 0.237378
9 1 0.0185424 0.431737 0.237861
10 1 0.0249422 0.362938 0.239741
11 1 0.0186719 0.171666 0.240752
12 1 0.012299 0.212439 0.238267
13 1 0.0318018 0.425439 0.245656
14 1 0.0382783 0.356116 0.239712
15 1 0.0315135 0.170555 0.246637
16 1 0.0249987 0.216061 0.242382
17 1 0.0450568 0.422365 0.248513
18 1 0.0513788 0.353435 0.25441
19 1 0.0447356 0.163271 0.243801
20 1 0.0381267 0.209249 0.24197
21 1 0.0577941 0.421154 0.245561
22 1 0.0645114 0.36111 0.249888
23 1 0.0578353 0.167241 0.260875
24 1 0.0514561 0.205787 0.253815
25 1 0.0708722 0.438673 0.248089
26 1 0.0774027 0.369439 0.250997
27 1 0.070871 0.174 0.264494
28 1 0.0642562 0.212178 0.264548
29 1 0.0842035 0.432676 0.239141
30 1 0.0909291 0.364683 0.261352
31 1 0.0840485 0.177707 0.253253
32 1 0.0775511 0.216845 0.25361
33 1 0.09712 0.429189 0.269404
34 1 0.103923 0.357477 0.262772
35 1 0.0971807 0.171395 0.256928
36 1 0.0904451 0.219611 0.25731
37 1 0.1103 0.428251 0.262188
38 1 0.116597 0.360791 0.269185
39 1 0.110209 0.174168 0.276
40 1 0.103652 0.211396 0.261584
41 1 0.123287 0.43017 0.267413
42 1 0.129763 0.363263 0.26362
43 1 0.123461 0.170024 0.272228
44 1 0.116766 0.211518 0.26931
45 1 0.136501 0.434535 0.254738
46 1 0.143123 0.363267 0.264295
47 1 0.136558 0.170233 0.265388
48 1 0.130038 0.216517 0.267506
49 1 0.149701 0.4265 0.256573
50 1 0.156102 0.354583 0.271837
51 1 0.149523 0.174168 0.263426
52 1 0.143115 0.216622 0.27025
53 1 0.162571 0.424518 0.265428
54 1 0.168714 0.353997 0.261418
55 1 0.16247 0.163385 0.269545
56 1 0.156135 0.215285 0.272668
57 1 0.175809 0.410816 0.253748
58 1 0.18218 0.34588 0.256696
59 1 0.175435 0.160463 0.278472
60 1 0.168946 0.201434 0.266307
61 1 0.188922 0.413021 0.247301
62 1 0.195391 0.345844 0.271421
63 1 0.188611 0.157594 0.292358
64 1 0.182153 0.197138 0.269824
65 1 0.201651 0.41683 0.270316
66 1 0.20821 0.347962 0.296511
67 1 0.201601 0.164463 0.325391
68 1 0.195033 0.201412 0.30192
69 1 0.214955 0.408168 0.279685
70 1 0.22153 0.339459 0.293162
71 1 0.214867 0.162933 0.331151
72 1 0.208387 0.204356 0.328249
73 1 0.228007 0.404984 0.279557
74 1 0.234526 0.334165 0.295379
75 1 0.227884 0.151908 0.334987
76 1 0.2215 0.195418 0.32541
77 1 0.241228 0.400665 0.271808
78 1 0.247614 0.340409 0.295975
79 1 0.241166 0.149921 0.341341
80 1 0.234617 0.191553 0.329406
81 1 0.254444 0.401526 0.272721
82 1 0.260926 0.339883 0.292415
83 1 0.254116 0.153604 0.332903
84 1 0.247715 0.195592 0.328486
85 1 0.267387 0.404115 0.276286
86 1 0.273904 0.340975 0.295909
87 1 0.267288 0.157765 0.336988
88 1 0.260726 0.197579 0.324917
89 1 0.280264 0.405003 0.270684
90 1 0.286846 0.342061 0.29527
91 1 0.28007 0.155901 0.343391
92 1 0.273764 0.197614 0.32985
93 1 0.293465 0.410422 0.269335
94 1 0.300026 0.348526 0.295624
95 1 0.293328 0.164264 0.349585
96 1 0.286573 0.200357 0.336717
97 1 0.306567 0.413468 0.274583
98 1 0.313005 0.34614 0.286223
99 1 0.306711 0.160969 0.339658
100 1 0.299947 0.203386 0.338984
101 1 0.319546 0.410435 0.266987
102 1 0.326079 0.339205 0.298895
103 1 0.319798 0.159717 0.353904
104 1 0.313278 0.200448 0.326375
105 1 0.332693 0.400218 0.271244
106 1 0.339059 0.339512 0.291699
107 1 0.33267 0.164617 0.36429
108 1 0.326299 0.202756 0.346472
109 1 0.345695 0.400672 0.268746
110 1 0.352619 0.343843 0.302845
111 1 0.346039 0.161682 0.365634
112 1 0.339259 0.20326 0.348962
113 1 0.359126 0.409222 0.275549
114 1 0.366006 0.345625 0.300049
115 1 0.359163 0.166419 0.367975
116 1 0.352784 0.206185 0.348165
117 1 0.372517 0.411187 0.280843
118 1 0.378998 0.345484 0.308519
119 1 0.372147 0.174818 0.379301
120 1 0.365634 0.207686 0.356702
121 1 0.385504 0.400631 0.28065
122 1 0.391831 0.335168 0.310578
123 1 0.384783 0.172709 0.394297
124 1 0.378695 0.216531 0.366402
125 1 0.398529 0.387523 0.28387
126 1 0.405138 0.321568 0.306229
127 1 0.398073 0.161298 0.400755
128 1 0.391477 0.203547 0.379836
129 1 0.411776 0.379651 0.28381
130 1 0.417948 0.315159 0.318363
131 1 0.410939 0.146076 0.402339
132 1 0.404622 0.193081 0.374348
133 1 0.424312 0.369408 0.296406
134 1 0.430781 0.308113 0.333654
135 1 0.423739 0.147156 0.41908
136 1 0.417411 0.185068 0.392457
137 1 0.43775 0.357448 0.313644
138 1 0.44363 0.290636 0.350208
139 1 0.436597 0.127916 0.425699
140 1 0.430269 0.173746 0.403207
141 1 0.450516 0.34302 0.335942
142 1 0.456208 0.290564 0.392813
143 1 0.449261 0.120679 0.443197
144 1 0.44307 0.160004 0.414785
145 1 0.462678 0.333542 0.393021
146 1 0.468246 0.298932 0.470455
147 1 0.461439 0.146203 0.498874
148 1 0.455488 0.162714 0.44472
149 1 0.47483 0.337956 0.48599
150 1 0.479178 0.309842 0.584101
151 1 0.471805 0.179861 0.634436
152 1 0.467208 0.1929 0.553333
153 1 0.486195 0.345562 0.598327
154 1 0.489784 0.372051 0.713722
155 1 0.481365 0.257483 0.782251
156 1 0.4775 0.22916 0.682969
157 1 0.49593 0.423088 0.728966
158 1 0.498151 0.492175 0.838448
159 1 0.489837 0.372993 0.925332
160 1 0.486718 0.324521 0.821549
161 1 0.5031 0.597072 0.834083
162 1 0.502327 0.740501 0.884916
163 1 0.494148 0.61113 0.991073
164 1 0.494217 0.486461 0.949047
165 1 0.504198 0.852899 0.816467
166 1 0.498771 0.931008 0.748985
167 1 0.492443 0.839641 0.905188
168 1 0.496005 0.738327 0.965638
169 1 0.499456 0.958896 0.616758
170 1 0.494091 0.934278 0.524327
171 1 0.488166 0.90903 0.701257
172 1 0.49231 0.908651 0.798404
173 1 0.494933 0.889043 0.391068
174 1 0.489329 0.853065 0.313769
175 1 0.48318 0.891474 0.482659
176 1 0.487611 0.916393 0.574085
177 1 0.490289 0.780817 0.195173
178 1 0.484854 0.730046 0.121358
179 1 0.478319 0.835363 0.267556
180 1 0.482473 0.873043 0.35863
181 1 0.485534 0.618606 0.0326389
182 1 0.480163 0.521721 0.00402998
183 1 0.474139 0.693422 0.0734601
184 1 0.478024 0.772975 0.155516
185 1 0.481122 0.37793 0.0164606
186 1 0.475821 0.292931 0.0656613
187 1 0.469454 0.457496 0.0151785
188 1 0.473237 0.573891 0.0103177
189 1 0.476723 0.181939 0.163751
190 1 0.47147 0.119756 0.237742
191 1 0.464957 0.235409 0.107522
192 1 0.46893 0.326582 0.0507196
193 1 0.472716 0.0565032 0.355993
194 1 0.467718 -0.00298969 0.432573
195 1 0.460905 0.0661646 0.2768
196 1 0.464747 0.137001 0.197345
197 1 0.468405 -0.0144372 0.566948
198 1 0.462863 0.0100642 0.658707
199 1 0.456887 -0.0404987 0.476452
200 1 0.461 -0.0172886 0.379315
201 1 0.464464 0.105976 0.749793
202 1 0.462777 0.253104 0.718918
203 1 0.454222 0.146749 0.63563
204 1 0.455865 0.00741887 0.597741
205 1 0.467818 0.355229 0.721883
206 1 0.469243 0.445462 0.619212
207 1 0.45925 0.399594 0.564531
208 1 0.457149 0.290229 0.632573
209 1 0.475723 0.501983 0.612425
210 1 0.479176 0.547642 0.498668
211 1 0.468813 0.551023 0.432555
212 1 0.464411 0.484775 0.525794
213 1 0.48628 0.566434 0.485864
214 1 0.490696 0.567793 0.375141
215 1 0.480567 0.613394 0.297027
216 1 0.475395 0.588523 0.390326
217 1 0.497877 0.561299 0.366203
218 1 0.503219 0.519887 0.278637
219 1 0.49389 0.5238 0.185168
220 1 0.487837 0.587931 0.25632
221 1 0.510912 0.535568 0.286066
222 1 0.51674 0.475742 0.221553
223 1 0.507781 0.375268 0.126681
224 1 0.501432 0.4475 0.169346
225 1 0.523357 0.509454 0.244345
226 1 0.529564 0.446546 0.194209
227 1 0.521133 0.309841 0.104065
228 1 0.514718 0.368256 0.138434
229 1 0.536524 0.492407 0.226278
230 1 0.542968 0.421936 0.19732
231 1 0.535084 0.283492 0.0989381
232 1 0.528045 0.325454 0.117713
233 1 0.549747 0.47406 0.226441
234 1 0.556011 0.413062 0.183185
235 1 0.548565 0.267227 0.0882701
236 1 0.542093 0.310647 0.115691
237 1 0.562555 0.460521 0.218026
238 1 0.569211 0.410637 0.17469
239 1 0.561967 0.24687 0.0858239
240 1 0.555583 0.286298 0.107968
241 1 0.5757 0.46512 0.207551
242 1 0.582123 0.407741 0.170079
243 1 0.575413 0.237231 0.0954734
244 1 0.568648 0.274144 0.110471
245 1 0.588927 0.452504 0.205154
246 1 0.595278 0.39265 0.163895
247 1 0.588427 0.240039 0.0861575
248 1 0.581919 0.281858 0.10751
249 1 0.602106 0.447496 0.19485
250 1 0.608752 0.382808 0.160972
251 1 0.601646 0.218515 0.0809661
252 1 0.595236 0.267664 0.0974908
253 1 0.615277 0.434239 0.193613
254 1 0.621652 0.364406 0.172624
255 1 0.614777 0.204481 0.0878267
256 1 0.608355 0.250133 0.100786
257 1 0.628262 0.418705 0.209187
258 1 0.634634 0.35332 0.181413
259 1 0.62773 0.188036 0.10068
260 1 0.621404 0.231642 0.109914
261 1 0.641202 0.409606 0.206661
262 1 0.647879 0.34032 0.180098
263 1 0.640911 0.169088 0.109696
264 1 0.634557 0.216564 0.126923
265 1 0.654555 0.403831 0.203877
266 1 0.661122 0.336862 0.179608
267 1 0.654141 0.154898 0.111157
268 1 0.647614 0.204562 0.127473
269 1 0.667608 0.398804 0.206551
270 1 0.673967 0.339205 0.18568
271 1 0.667475 0.162439 0.12048
272 1 0.660798 0.196005 0.133622
273 1 0.680915 0.403515 0.21467
274 1 0.687519 0.341186 0.197667
275 1 0.680352 0.163555 0.133106
276 1 0.67384 0.205705 0.137732
277 1 0.693773 0.401264 0.215669
278 1 0.70044 0.338861 0.188277
279 1 0.693534 0.154997 0.139511
280 1 0.686955 0.199689 0.150234
281 1 0.706883 0.40292 0.216407
282 1 0.71332 0.344089 0.197633
283 1 0.706995 0.159975 0.13201
284 1 0.70032 0.194179 0.151812
285 1 0.719777 0.407255 0.220854
286 1 0.726268 0.343119 0.202967
287 1 0.720144 0.161922 0.138993
288 1 0.713661 0.208329 0.150364
289 1 0.732772 0.410119 0.224342
290 1 0.739285 0.349359 0.206355
291 1 0.73304 0.160673 0.140314
292 1 0.726447 0.203911 0.153095
293 1 0.745798 0.410575 0.232822
294 1 0.752121 0.346256 0.221531
295 1 0.746002 0.167803 0.15748
296 1 0.739363 0.207332 0.16418
297 1 0.758684 0.413393 0.2352
298 1 0.765342 0.349206 0.212405
299 1 0.759102 0.16362 0.173818
300 1 0.752496 0.201436 0.176054
301 1 0.772028 0.414314 0.230731
302 1 0.778656 0.346585 0.214483
303 1 0.772209 0.165981 0.177074
304 1 0.765727 0.206007 0.190526
305 1 0.78525 0.412373 0.224847
306 1 0.791655 0.344588 0.206465
307 1 0.785185 0.153903 0.1752
308 1 0.778786 0.198351 0.18678
309 1 0.7985 0.408902 0.226021
310 1 0.805014 0.350912 0.206341
311 1 0.798472 0.157595 0.172865
312 1 0.791844 0.197895 0.184526
313 1 0.811603 0.412881 0.216398
314 1 0.817928 0.350477 0.20661
315 1 0.811274 0.159083 0.188296
316 1 0.804928 0.205043 0.181441
317 1 0.82439 0.416844 0.208965
318 1 0.830904 0.350095 0.193926
319 1 0.824394 0.157225 0.187915
320 1 0.817777 0.197347 0.198375
321 1 0.83783 0.419214 0.205548
322 1 0.844392 0.351026 0.19401
323 1 0.837589 0.161911 0.171331
324 1 0.831099 0.201171 0.176048
325 1 0.850846 0.417285 0.209161
326 1 0.857455 0.352963 0.206381
327 1 0.850838 0.158384 0.169258
328 1 0.844149 0.207109 0.173025
329 1 0.863879 0.419075 0.217387
330 1 0.870461 0.350757 0.205641
331 1 0.863853 0.161636 0.188364
332 1 0.857265 0.206301 0.187002
333 1 0.877148 0.420151 0.216856
334 1 0.883681 0.356257 0.215372
335 1 0.877118 0.164874 0.187956
336 1 0.870477 0.201832 0.195843
337 1 0.890425 0.425266 0.228146
338 1 0.89683 0.357993 0.220713
339 1 0.89012 0.17122 0.193969
340 1 0.883559 0.213022 0.195884
341 1 0.903681 0.419956 0.222068
342 1 0.910094 0.347725 0.221382
343 1 0.903452 0.16102 0.206049
344 1 0.896938 0.205844 0.205163
345 1 0.916542 0.412999 0.221139
346 1 0.92323 0.351391 0.232178
347 1 0.916547 0.162053 0.212459
348 1 0.90996 0.202427 0.216201
349 1 0.929853 0.419559 0.239502
350 1 0.936588 0.352709 0.227709
351 1 0.929874 0.159419 0.229954
352 1 0.92311 0.204191 0.219465
353 1 0.942954 0.422563 0.235069
354 1 0.949597 0.355413 0.226187
355 1 0.942802 0.162282 0.213132
356 1 0.936453 0.208409 0.225348
357 1 0.955811 0.431714 0.229172
358 1 0.962572 0.365267 0.234891
359 1 0.956355 0.169738 0.221584
360 1 0.949385 0.205559 0.212904
361 1 0.969186 0.431395 0.235397
362 1 0.975937 0.363018 0.231485
363 1 0.969498 0.170312 0.233263
364 1 0.962672 0.214506 0.229001
365 1 0.982291 0.435032 0.235334
366 1 0.98875 0.369516 0.237051
367 1 0.982594 0.180479 0.234125
368 1 0.976091 0.216393 0.229425
369 1 0.0184723 0.830874 0.235248
370 1 0.0249462 0.790229 0.23347
371 1 0.0185592 0.576094 0.23696
372 1 0.0121908 0.644942 0.237424
373 1 0.0315905 0.830794 0.22971
374 1 0.0380206 0.781438 0.234709
375 1 0.0318599 0.568814 0.241615
376 1 0.0249756 0.643565 0.235606
377 1 0.0444255 0.82312 0.221596
378 1 0.0509242 0.783884 0.230656
379 1 0.0449354 0.570977 0.243018
380 1 0.0383067 0.635872 0.239299
381 1 0.0575113 0.833775 0.230022
382 1 0.0640972 0.791295 0.241102
383 1 0.0576633 0.569061 0.240854
384 1 0.0513413 0.638512 0.238228
385 1 0.0706953 0.8394 0.243178
386 1 0.0775105 0.797157 0.241216
387 1 0.0708783 0.580973 0.24478
388 1 0.0642423 0.64354 0.244784
389 1 0.0843047 0.831365 0.241888
390 1 0.0907895 0.790163 0.23081
391 1 0.0839743 0.580317 0.227252
392 1 0.0773826 0.65067 0.238534
393 1 0.0976049 0.831955 0.228059
394 1 0.10384 0.777154 0.235236
395 1 0.0971239 0.573505 0.247521
396 1 0.0906301 0.644783 0.23336
397 1 0.11022 0.818782 0.224313
398 1 0.116973 0.779186 0.233595
399 1 0.110174 0.565849 0.251001
400 1 0.103849 0.630311 0.245013
401 1 0.123287 0.825832 0.221706
402 1 0.129853 0.785745 0.224659
403 1 0.123475 0.571888 0.252521
404 1 0.116771 0.632046 0.246493
405 1 0.136432 0.832878 0.225635
406 1 0.143034 0.790888 0.227879
407 1 0.136461 0.576173 0.243021
408 1 0.129841 0.64126 0.236834
409 1 0.149605 0.835333 0.217113
410 1 0.156397 0.78918 0.217672
411 1 0.149627 0.571865 0.233858
412 1 0.143114 0.648192 0.232645
413 1 0.163235 0.823911 0.214763
414 1 0.169484 0.766759 0.209103
415 1 0.162484 0.570432 0.244834
416 1 0.15607 0.641301 0.229238
417 1 0.175992 0.805984 0.199766
418 1 0.182677 0.758889 0.201517
419 1 0.175631 0.551125 0.234851
420 1 0.169345 0.624515 0.233603
421 1 0.189129 0.806935 0.1922
422 1 0.195363 0.763055 0.189971
423 1 0.18899 0.552193 0.230232
424 1 0.182461 0.617876 0.220923
425 1 0.201983 0.798992 0.172893
426 1 0.208349 0.752998 0.180601
427 1 0.201665 0.553227 0.237933
428 1 0.195428 0.619389 0.217682
429 1 0.21495 0.794321 0.168921
430 1 0.221365 0.754526 0.177244
431 1 0.214906 0.548562 0.237736
432 1 0.208507 0.614423 0.221953
433 1 0.22807 0.791502 0.16101
434 1 0.234531 0.744948 0.169302
435 1 0.22826 0.541758 0.235317
436 1 0.221712 0.61405 0.216157
437 1 0.241004 0.789009 0.158352
438 1 0.247668 0.743684 0.155245
439 1 0.241195 0.540812 0.233013
440 1 0.234673 0.607858 0.213661
441 1 0.254397 0.77471 0.138958
442 1 0.260972 0.734544 0.154294
443 1 0.254304 0.536866 0.228072
444 1 0.247571 0.603698 0.205
445 1 0.267556 0.777102 0.14027
446 1 0.274145 0.741617 0.162291
447 1 0.267261 0.539989 0.235956
448 1 0.260889 0.601903 0.206051
449 1 0.280578 0.785118 0.143756
450 1 0.287145 0.746677 0.152876
451 1 0.280357 0.539518 0.219604
452 1 0.274164 0.602286 0.208837
453 1 0.293801 0.790514 0.137617
454 1 0.300055 0.746985 0.145793
455 1 0.293325 0.544684 0.218642
456 1 0.286755 0.601975 0.197923
457 1 0.306729 0.780015 0.130264
458 1 0.313297 0.739182 0.140142
459 1 0.306584 0.543191 0.221335
460 1 0.299942 0.602507 0.197101
461 1 0.319714 0.781228 0.121114
462 1 0.326254 0.741438 0.134732
463 1 0.319644 0.54237 0.218283
464 1 0.313028 0.606924 0.195695
465 1 0.332827 0.774664 0.118951
466 1 0.33945 0.736423 0.13448
467 1 0.332687 0.53511 0.218593
468 1 0.326238 0.605647 0.193379
469 1 0.346141 0.773123 0.117827
470 1 0.352559 0.727265 0.124507
471 1 0.345774 0.527929 0.207671
472 1 0.33935 0.595518 0.184028
473 1 0.359439 0.763806 0.103797
474 1 0.366395 0.726215 0.122581
475 1 0.359169 0.535703 0.215623
476 1 0.352972 0.594782 0.187807
477 1 0.372862 0.765414 0.100986
478 1 0.379478 0.716214 0.122529
479 1 0.372473 0.537987 0.21913
480 1 0.366159 0.593842 0.18818
481 1 0.386037 0.743017 0.102692
482 1 0.392664 0.698202 0.114448
483 1 0.385873 0.527609 0.222461
484 1 0.379064 0.591526 0.191256
485 1 0.399458 0.72861 0.093488
486 1 0.406096 0.700119 0.126208
487 1 0.398953 0.520054 0.228357
488 1 0.392291 0.579613 0.192487
489 1 0.412773 0.725403 0.102816
490 1 0.419655 0.685595 0.118776
491 1 0.412136 0.513081 0.234032
492 1 0.40564 0.57332 0.200634
493 1 0.426515 0.710929 0.105341
494 1 0.433135 0.671864 0.131244
495 1 0.425197 0.497091 0.232334
496 1 0.418895 0.558789 0.192915
497 1 0.439991 0.697081 0.120845
498 1 0.446386 0.647881 0.144608
499 1 0.438225 0.479222 0.239843
500 1 0.432181 0.546981 0.203769
501 1 0.453373 0.662585 0.132729
502 1 0.459958 0.609771 0.171573
503 1 0.451565 0.45993 0.259828
504 1 0.445568 0.523021 0.21173
505 1 0.46733 0.577126 0.165589
506 1 0.474642 0.493448 0.184297
507 1 0.464706 0.42235 0.30277
508 1 0.45869 0.493607 0.247663
509 1 0.481822 0.43361 0.199298
510 1 0.488003 0.37826 0.26332
511 1 0.477317 0.385497 0.379346
512 1 0.471804 0.425876 0.287175
513 1 0.495226 0.358082 0.296911
514 1 0.500229 0.361188 0.394516
515 1 0.489191 0.366426 0.484803
516 1 0.484616 0.379618 0.380399
517 1 0.506517 0.416459 0.433414
518 1 0.510619 0.475766 0.530188
519 1 0.4998 0.430006 0.618107
520 1 0.496421 0.379299 0.50762
521 1 0.516155 0.573394 0.561299
522 1 0.518206 0.677684 0.646322
523 1 0.507662 0.592416 0.733437
524 1 0.506162 0.498513 0.638162
525 1 0.520793 0.819958 0.64694
526 1 0.518777 0.949977 0.599989
527 1 0.510251 0.854093 0.752056
528 1 0.51234 0.702629 0.73041
529 1 0.517814 0.982656 0.473875
530 1 0.513413 0.944415 0.378698
531 1 0.506077 0.959493 0.561031
532 1 0.511712 0.947735 0.654125
533 1 0.513244 0.864398 0.270583
534 1 0.509183 0.787432 0.198802
535 1 0.501581 0.88519 0.351265
536 1 0.506626 0.942168 0.427526
537 1 0.508702 0.703816 0.097916
538 1 0.504598 0.622792 0.0368526
539 1 0.49693 0.754163 0.163394
540 1 0.502597 0.806035 0.235053
541 1 0.504124 0.495456 -0.0133741
542 1 0.500119 0.387868 -0.0145902
543 1 0.492286 0.58013 0.00426843
544 1 0.497888 0.661962 0.0557025
545 1 0.4995 0.27325 0.0651875
546 1 0.495684 0.208952 0.150905
547 1 0.487912 0.338997 0.0352745
548 1 0.492986 0.433024 -0.0128521
549 1 0.49557 0.147473 0.270194
550 1 0.491425 0.0986268 0.360041
551 1 0.483531 0.170542 0.202155
552 1 0.488602 0.236124 0.125082
553 1 0.491084 0.0699277 0.481635
554 1 0.487172 0.0281508 0.570772
555 1 0.479298 0.0555362 0.399624
556 1 0.484489 0.106017 0.319486
557 1 0.486833 0.0254899 0.69795
558 1 0.482612 0.0306305 0.794557
559 1 0.475321 -0.0140967 0.616433
560 1 0.480603 0.0159571 0.52685
561 1 0.481564 0.0956626 0.901385
562 1 0.478627 0.203187 0.962515
563 1 0.47105 0.0944144 0.809216
564 1 0.476011 0.0130917 0.743159
565 1 0.480531 0.335708 0.991136
566 1 0.480635 0.466474 0.945678
567 1 0.472329 0.342691 0.818758
568 1 0.472956 0.20826 0.883411
569 1 0.484848 0.565105 0.921071
570 1 0.488327 0.620413 0.825717
571 1 0.479459 0.506909 0.721478
572 1 0.476922 0.442898 0.827655
573 1 0.494049 0.67791 0.786788
574 1 0.497943 0.701499 0.693422
575 1 0.489379 0.578124 0.596956
576 1 0.485686 0.567056 0.712016
577 1 0.503289 0.762211 0.639923
578 1 0.507727 0.755898 0.55194
579 1 0.500403 0.604913 0.484788
580 1 0.495988 0.622383 0.58667
581 1 0.513548 0.798771 0.51551
582 1 0.519403 0.775127 0.463247
583 1 0.512118 0.624018 0.382893
584 1 0.506754 0.653672 0.465308
585 1 0.52572 0.812176 0.472737
586 1 0.53195 0.780278 0.437021
587 1 0.524465 0.616416 0.326461
588 1 0.518848 0.665809 0.386911
589 1 0.538418 0.8118 0.453141
590 1 0.544676 0.768318 0.421581
591 1 0.537283 0.613873 0.303138
592 1 0.531212 0.666282 0.355876
593 1 0.551029 0.798107 0.446344
594 1 0.557375 0.752646 0.415968
595 1 0.550264 0.593477 0.297625
596 1 0.544121 0.659344 0.331536
597 1 0.563712 0.786092 0.434509
598 1 0.570148 0.751376 0.410188
599 1 0.563077 0.57841 0.298025
600 1 0.55701 0.638483 0.337873
601 1 0.576931 0.794146 0.421298
602 1 0.58313 0.758011 0.385997
603 1 0.576276 0.583233 0.283343
604 1 0.569775 0.638358 0.326163
605 1 0.589668 0.784371 0.407898
606 1 0.596059 0.748288 0.383954
607 1 0.589398 0.564558 0.284006
608 1 0.582954 0.630737 0.314306
609 1 0.602533 0.780649 0.402221
610 1 0.609111 0.736256 0.375889
611 1 0.602438 0.567387 0.266947
612 1 0.596057 0.622083 0.31314
613 1 0.615488 0.770851 0.394257
614 1 0.621914 0.73478 0.374671
615 1 0.615148 0.55062 0.266125
616 1 0.608867 0.617493 0.301008
617 1 0.628412 0.768913 0.396799
618 1 0.635088 0.726874 0.380672
619 1 0.628314 0.545295 0.271584
620 1 0.621902 0.610291 0.299769
621 1 0.641693 0.763087 0.393897
622 1 0.647951 0.73081 0.362056
623 1 0.641576 0.541044 0.267654
624 1 0.634831 0.598485 0.302256
625 1 0.654651 0.764219 0.376719
626 1 0.661178 0.72964 0.347561
627 1 0.654484 0.539737 0.258571
628 1 0.648036 0.604734 0.290695
629 1 0.667499 0.76987 0.355934
630 1 0.674009 0.731376 0.344505
631 1 0.667319 0.536764 0.254974
632 1 0.660782 0.598963 0.279988
633 1 0.680587 0.775978 0.358877
634 1 0.68709 0.741403 0.347408
635 1 0.680693 0.540692 0.267607
636 1 0.673722 0.599706 0.285331
637 1 0.693714 0.782725 0.357622
638 1 0.700409 0.735655 0.342226
639 1 0.693768 0.53564 0.26765
640 1 0.687315 0.597924 0.296301
641 1 0.706861 0.780435 0.352013
642 1 0.713226 0.742527 0.332194
643 1 0.706634 0.53312 0.266894
644 1 0.700131 0.59552 0.291334
645 1 0.719376 0.78977 0.341912
646 1 0.725965 0.753921 0.328599
647 1 0.719647 0.545259 0.266485
648 1 0.713065 0.601322 0.292148
649 1 0.732347 0.80061 0.335166
650 1 0.738865 0.760399 0.32219
651 1 0.73266 0.548911 0.259587
652 1 0.726218 0.613912 0.283972
653 1 0.745238 0.800535 0.338081
654 1 0.752009 0.756853 0.32895
655 1 0.745657 0.551942 0.268291
656 1 0.73909 0.615223 0.279997
657 1 0.758603 0.793691 0.33373
658 1 0.76516 0.755928 0.325774
659 1 0.758693 0.547294 0.276726
660 1 0.752249 0.615141 0.292848
661 1 0.771732 0.794514 0.314175
662 1 0.778253 0.760489 0.288497
663 1 0.77205 0.55047 0.266218
664 1 0.765219 0.6161 0.288883
665 1 0.784809 0.79943 0.293906
666 1 0.791804 0.769891 0.28135
667 1 0.784953 0.552369 0.251292
668 1 0.778541 0.615694 0.267983
669 1 0.798324 0.811348 0.273001
670 1 0.804629 0.767787 0.277746
671 1 0.798084 0.553113 0.254634
672 1 0.791712 0.617932 0.263992
673 1 0.811255 0.812531 0.286265
674 1 0.817559 0.768796 0.275995
675 1 0.811444 0.555006 0.251413
676 1 0.804797 0.620059 0.265688
677 1 0.824261 0.813239 0.274783
678 1 0.830562 0.77634 0.25833
679 1 0.82433 0.560227 0.233885
680 1 0.817742 0.62007 0.258172
681 1 0.837392 0.817989 0.269242
682 1 0.84404 0.772525 0.2572
683 1 0.83783 0.564418 0.231539
684 1 0.830854 0.628514 0.227419
685 1 0.85033 0.813909 0.263782
686 1 0.85709 0.780954 0.260317
687 1 0.851 0.563361 0.227942
688 1 0.844321 0.628358 0.239595
689 1 0.863867 0.820286 0.263472
690 1 0.87053 0.780644 0.266013
691 1 0.863884 0.56308 0.234387
692 1 0.857596 0.632033 0.239101
693 1 0.876772 0.830266 0.275354
694 1 0.883433 0.784018 0.270935
695 1 0.877296 0.566362 0.233569
696 1 0.870646 0.632918 0.248424
697 1 0.890476 0.822578 0.279414
698 1 0.897067 0.777612 0.272243
699 1 0.890255 0.569236 0.239447
700 1 0.883996 0.640772 0.249996
701 1 0.90368 0.814792 0.263675
702 1 0.909837 0.773264 0.249031
703 1 0.903241 0.565857 0.226958
704 1 0.89687 0.635247 0.241903
705 1 0.916326 0.81129 0.247036
706 1 0.92297 0.773683 0.253185
707 1 0.9167 0.560022 0.229128
708 1 0.909931 0.622082 0.233339
709 1 0.929624 0.818864 0.246478
710 1 0.936126 0.779602 0.247677
711 1 0.9298 0.564674 0.247446
712 1 0.922952 0.627038 0.243888
713 1 0.942681 0.820532 0.249684
714 1 0.949361 0.784865 0.256522
715 1 0.942804 0.566349 0.244414
716 1 0.936364 0.629443 0.245972
717 1 0.955722 0.83172 0.23952
718 1 0.962345 0.793012 0.232129
719 1 0.955918 0.572559 0.239863
720 1 0.949458 0.636497 0.252635
721 1 0.969008 0.83558 0.239446
722 1 0.975386 0.79057 0.241442
723 1 0.969147 0.570355 0.227369
724 1 0.962551 0.64047 0.235621
725 1 0.981812 0.838214 0.241686
726 1 0.988423 0.803101 0.239014
727 1 0.982231 0.57984 0.236884
728 1 0.975602 0.643217 0.237425
729 1 0.994989 0.437347 0.237376
730 1 1.00084 0.367295 0.237378
731 1 0.994912 0.156348 0.237386
732 1 0.989026 0.225974 0.237343
733 1 0.994947 0.857808 0.237405
734 1 1.00085 0.789908 0.237369
735 1 0.994882 0.577413 0.237376
736 1 0.989009 0.649076 0.23739
