ITEM: TIMESTEP
11500
ITEM: NUMBER OF ATOMS
496
ITEM: BOX BOUNDS ss ss ss
21.5636 78.3669
40.8225 60.2059
41.8403 57.9428
ITEM: ATOMS id type xs ys zs
1 1 0.0268105 0.351594 0.925261
2 1 0.0438371 0.397472 0.947019
3 1 0.0196058 0.49787 0.991245
4 1 -0.00304902 0.503815 0.99269
5 1 0.0304886 0.143651 0.831286
6 1 0.0488086 0.184565 0.851255
7 1 0.0216583 0.287011 0.895647
8 1 0.000400571 0.259131 0.881417
9 1 0.0680801 0.367416 0.934694
10 1 0.0903032 0.404218 0.951819
11 1 0.0643208 0.491609 0.98993
12 1 0.0410287 0.467941 0.978625
13 1 0.114171 0.375292 0.939406
14 1 0.136305 0.413661 0.955917
15 1 0.110531 0.502176 0.994555
16 1 0.0880368 0.475444 0.983165
17 1 0.160254 0.3848 0.942896
18 1 0.182311 0.423843 0.958274
19 1 0.156652 0.512529 0.996928
20 1 0.134216 0.485636 0.98681
21 1 0.206244 0.395195 0.945063
22 1 0.22821 0.434799 0.959464
23 1 0.202572 0.523458 0.997615
24 1 0.180242 0.496016 0.9884
25 1 0.25213 0.406269 0.946562
26 1 0.273993 0.446438 0.959698
27 1 0.248368 0.535118 0.997101
28 1 0.226124 0.507217 0.988661
29 1 0.297864 0.418112 0.946457
30 1 0.319601 0.459197 0.956477
31 1 0.294094 0.547461 0.99525
32 1 0.27191 0.5191 0.987897
33 1 0.3433 0.431879 0.938974
34 1 0.364894 0.473781 0.94497
35 1 0.339804 0.56037 0.991004
36 1 0.317623 0.531756 0.985068
37 1 0.388071 0.448522 0.918204
38 1 0.409516 0.49062 0.920852
39 1 0.385522 0.573526 0.981764
40 1 0.363254 0.545158 0.977739
41 1 0.431549 0.468606 0.881598
42 1 0.452832 0.510577 0.881628
43 1 0.431079 0.58644 0.963166
44 1 0.408662 0.55902 0.962073
45 1 0.472834 0.495077 0.827565
46 1 0.493298 0.539785 0.822058
47 1 0.475719 0.60105 0.928958
48 1 0.453432 0.573457 0.933733
49 1 0.508436 0.54043 0.748779
50 1 0.523218 0.599572 0.727538
51 1 0.515695 0.631719 0.862271
52 1 0.496331 0.594227 0.88493
53 1 0.528553 0.615989 0.641048
54 1 0.533672 0.686116 0.612905
55 1 0.535722 0.710921 0.753386
56 1 0.528298 0.65126 0.792681
57 1 0.531023 0.706197 0.526058
58 1 0.528605 0.777818 0.499951
59 1 0.537253 0.803644 0.637236
60 1 0.537774 0.740301 0.676149
61 1 0.518637 0.796926 0.419922
62 1 0.508192 0.864101 0.403242
63 1 0.525573 0.893688 0.525509
64 1 0.532647 0.83291 0.561064
65 1 0.489465 0.872307 0.3428
66 1 0.470682 0.923063 0.351446
67 1 0.496412 0.972446 0.442285
68 1 0.51303 0.922195 0.45981
69 1 0.447404 0.909053 0.317757
70 1 0.426028 0.934306 0.356869
71 1 0.451819 0.998961 0.438187
72 1 0.473979 0.980294 0.411116
73 1 0.402887 0.907656 0.334001
74 1 0.382138 0.918505 0.385896
75 1 0.407326 0.984409 0.468854
76 1 0.428604 0.981337 0.428568
77 1 0.359595 0.885791 0.366964
78 1 0.339906 0.886898 0.42517
79 1 0.364695 0.953044 0.508973
80 1 0.384915 0.958923 0.46344
81 1 0.318014 0.849839 0.408986
82 1 0.299916 0.841084 0.472531
83 1 0.3245 0.907491 0.556138
84 1 0.343178 0.921997 0.505957
85 1 0.2792 0.797944 0.458897
86 1 0.264067 0.775634 0.527162
87 1 0.287722 0.845951 0.60965
88 1 0.304075 0.870898 0.555792
89 1 0.246559 0.721112 0.516138
90 1 0.237371 0.681915 0.586595
91 1 0.257412 0.762168 0.667878
92 1 0.269374 0.801054 0.611778
93 1 0.22681 0.613727 0.574715
94 1 0.227115 0.562097 0.640926
95 1 0.239383 0.652705 0.725426
96 1 0.243681 0.70496 0.67146
97 1 0.226865 0.488354 0.620858
98 1 0.238037 0.437924 0.675575
99 1 0.240076 0.528368 0.770487
100 1 0.233934 0.584646 0.72557
101 1 0.247444 0.373367 0.64192
102 1 0.266798 0.337434 0.682562
103 1 0.261059 0.41572 0.790502
104 1 0.245123 0.460822 0.759817
105 1 0.281268 0.287627 0.637599
106 1 0.304071 0.266339 0.668523
107 1 0.295448 0.334469 0.7839
108 1 0.274288 0.362023 0.765441
109 1 0.31971 0.221483 0.621758
110 1 0.342557 0.201387 0.653369
111 1 0.333539 0.270616 0.764878
112 1 0.311808 0.2939 0.748803
113 1 0.358546 0.157079 0.60813
114 1 0.380706 0.134331 0.643774
115 1 0.369568 0.195446 0.759085
116 1 0.349577 0.226233 0.735166
117 1 0.397726 0.094725 0.596813
118 1 0.420185 0.0743095 0.632683
119 1 0.407499 0.127489 0.752948
120 1 0.386552 0.153642 0.729594
121 1 0.438465 0.0420715 0.583067
122 1 0.461573 0.0266373 0.617694
123 1 0.446933 0.0672749 0.742196
124 1 0.425376 0.0902716 0.720482
125 1 0.481398 0.00847139 0.564927
126 1 0.50524 0.00296462 0.598032
127 1 0.488652 0.022864 0.726555
128 1 0.466036 0.0373892 0.707198
129 1 0.525739 0.00328933 0.543791
130 1 0.549618 0.00938238 0.576664
131 1 0.532561 0.00500256 0.706469
132 1 0.509271 0.00709885 0.688648
133 1 0.569433 0.0271272 0.523439
134 1 0.592768 0.0421504 0.557111
135 1 0.576872 0.0161815 0.685218
136 1 0.553745 0.0065439 0.667341
137 1 0.611272 0.0721866 0.506086
138 1 0.634165 0.0918833 0.540008
139 1 0.620096 0.0502923 0.66516
140 1 0.597458 0.0329064 0.646812
141 1 0.651508 0.129118 0.490649
142 1 0.674408 0.149938 0.523253
143 1 0.661978 0.0984406 0.646006
144 1 0.639643 0.0772206 0.628059
145 1 0.6909 0.191293 0.474517
146 1 0.71365 0.213738 0.506507
147 1 0.702573 0.155457 0.627201
148 1 0.680575 0.131242 0.609595
149 1 0.728971 0.260467 0.459765
150 1 0.749887 0.291719 0.4964
151 1 0.740865 0.224256 0.612331
152 1 0.720169 0.193185 0.591909
153 1 0.761757 0.350408 0.457212
154 1 0.777229 0.395973 0.504577
155 1 0.773292 0.314575 0.610161
156 1 0.756493 0.270786 0.581642
157 1 0.781265 0.467334 0.478044
158 1 0.787025 0.521225 0.538322
159 1 0.792518 0.430471 0.63061
160 1 0.783933 0.37482 0.589742
161 1 0.780235 0.59303 0.522943
162 1 0.774954 0.639942 0.591666
163 1 0.790794 0.554257 0.675452
164 1 0.793655 0.499948 0.623578
165 1 0.759191 0.698837 0.580003
166 1 0.745755 0.727807 0.649152
167 1 0.768093 0.655106 0.73213
168 1 0.780796 0.617526 0.677143
169 1 0.725336 0.772061 0.635291
170 1 0.707658 0.783573 0.699706
171 1 0.732288 0.719407 0.78477
172 1 0.750319 0.701552 0.733864
173 1 0.685578 0.819275 0.682635
174 1 0.665983 0.818849 0.741276
175 1 0.690886 0.756018 0.827025
176 1 0.711074 0.751452 0.782087
177 1 0.643371 0.850699 0.721845
178 1 0.622771 0.841395 0.774771
179 1 0.647453 0.777297 0.859819
180 1 0.668571 0.780694 0.820282
181 1 0.599762 0.868541 0.751843
182 1 0.578372 0.848567 0.795923
183 1 0.603056 0.786973 0.883256
184 1 0.624757 0.798117 0.850095
185 1 0.555181 0.865023 0.763568
186 1 0.534229 0.827272 0.788785
187 1 0.558063 0.778517 0.888983
188 1 0.579984 0.80172 0.868267
189 1 0.513666 0.823875 0.73525
190 1 0.497797 0.764832 0.733912
191 1 0.515754 0.739953 0.857703
192 1 0.53539 0.780524 0.860614
193 1 0.485214 0.745934 0.658501
194 1 0.478911 0.675084 0.638436
195 1 0.489392 0.654299 0.774772
196 1 0.498735 0.715774 0.803731
197 1 0.473624 0.653125 0.553866
198 1 0.474408 0.58109 0.528061
199 1 0.478891 0.558376 0.668496
200 1 0.481346 0.622515 0.70402
201 1 0.476156 0.561055 0.440911
202 1 0.484258 0.492746 0.414496
203 1 0.480236 0.464935 0.552709
204 1 0.476681 0.526996 0.592062
205 1 0.495649 0.483003 0.333888
206 1 0.512443 0.427432 0.317637
207 1 0.498588 0.382418 0.44244
208 1 0.485367 0.435964 0.47583
209 1 0.529785 0.432005 0.250356
210 1 0.54946 0.384046 0.241106
211 1 0.5318 0.325787 0.351583
212 1 0.513563 0.368584 0.376437
213 1 0.569217 0.397914 0.184809
214 1 0.589471 0.351916 0.176768
215 1 0.569068 0.282191 0.270706
216 1 0.549821 0.321447 0.293989
217 1 0.611157 0.372184 0.133449
218 1 0.63189 0.32746 0.127503
219 1 0.608514 0.24828 0.197714
220 1 0.588491 0.284304 0.219229
221 1 0.655066 0.351703 0.0993338
222 1 0.676348 0.308064 0.099872
223 1 0.650971 0.222451 0.14603
224 1 0.629837 0.256069 0.157728
225 1 0.700268 0.335924 0.0870989
226 1 0.721964 0.294728 0.0985274
227 1 0.696105 0.204817 0.128086
228 1 0.674031 0.23396 0.122111
229 1 0.745951 0.323161 0.0879185
230 1 0.76778 0.282665 0.10151
231 1 0.741904 0.193032 0.132898
232 1 0.719725 0.221055 0.122513
233 1 0.791808 0.310957 0.0895414
234 1 0.81377 0.270917 0.103719
235 1 0.787901 0.181877 0.138584
236 1 0.765592 0.209505 0.128012
237 1 0.837817 0.29921 0.0905022
238 1 0.859948 0.259826 0.105218
239 1 0.834097 0.171055 0.142729
240 1 0.811639 0.198223 0.132331
241 1 0.884032 0.288454 0.0916365
242 1 0.906356 0.249982 0.107103
243 1 0.880496 0.161348 0.145644
244 1 0.857842 0.187536 0.135307
245 1 0.930858 0.277817 0.0944164
246 1 0.953623 0.236727 0.112068
247 1 0.926638 0.152744 0.148683
248 1 0.904152 0.178609 0.137715
249 1 0.0730957 0.171379 0.847112
250 1 0.0956072 0.196471 0.859833
251 1 0.0690584 0.29608 0.902753
252 1 0.0462385 0.255808 0.883238
253 1 0.119232 0.178513 0.853251
254 1 0.141923 0.203804 0.865509
255 1 0.115902 0.305235 0.908696
256 1 0.093518 0.267622 0.891267
257 1 0.16563 0.186514 0.859342
258 1 0.188162 0.212716 0.871442
259 1 0.162167 0.314292 0.913035
260 1 0.139944 0.275868 0.896425
261 1 0.211866 0.195603 0.866018
262 1 0.234286 0.22233 0.877784
263 1 0.208246 0.324326 0.916549
264 1 0.186166 0.285209 0.90089
265 1 0.257959 0.205143 0.873534
266 1 0.280294 0.232269 0.88505
267 1 0.254195 0.33495 0.919895
268 1 0.232229 0.295337 0.905088
269 1 0.303946 0.215234 0.880633
270 1 0.32626 0.243265 0.888395
271 1 0.299991 0.346172 0.922353
272 1 0.278141 0.305865 0.9096
273 1 0.349755 0.229476 0.87137
274 1 0.371228 0.262238 0.862171
275 1 0.345391 0.360385 0.913414
276 1 0.323897 0.317579 0.910304
277 1 0.393528 0.253599 0.829429
278 1 0.413674 0.288707 0.808755
279 1 0.389738 0.37931 0.885136
280 1 0.368781 0.335011 0.888723
281 1 0.433249 0.285105 0.758391
282 1 0.452244 0.324382 0.732889
283 1 0.432083 0.403938 0.83723
284 1 0.411947 0.35791 0.846242
285 1 0.470241 0.327693 0.675158
286 1 0.48831 0.370472 0.648798
287 1 0.471649 0.436591 0.772302
288 1 0.452082 0.388662 0.782645
289 1 0.503209 0.383523 0.582335
290 1 0.516302 0.436814 0.547604
291 1 0.505923 0.485932 0.688501
292 1 0.48916 0.430606 0.705808
293 1 0.521299 0.464771 0.470194
294 1 0.524689 0.52635 0.429408
295 1 0.525255 0.562563 0.579816
296 1 0.5173 0.494591 0.607731
297 1 0.522378 0.556462 0.352305
298 1 0.519811 0.620096 0.315538
299 1 0.527514 0.653007 0.464952
300 1 0.526893 0.581352 0.492245
301 1 0.511735 0.650741 0.244097
302 1 0.502304 0.711616 0.213769
303 1 0.515702 0.744124 0.358512
304 1 0.522122 0.673661 0.38003
305 1 0.48527 0.734644 0.159233
306 1 0.465533 0.774795 0.155536
307 1 0.487111 0.820433 0.28009
308 1 0.503121 0.761738 0.282622
309 1 0.442881 0.772082 0.127005
310 1 0.420905 0.795352 0.146947
311 1 0.445512 0.860409 0.250694
312 1 0.466554 0.822592 0.226436
313 1 0.39786 0.780279 0.131851
314 1 0.376098 0.791873 0.164327
315 1 0.400912 0.863767 0.261559
316 1 0.422382 0.843225 0.218329
317 1 0.353402 0.771001 0.15451
318 1 0.332196 0.775176 0.193391
319 1 0.357229 0.846563 0.290875
320 1 0.377937 0.836308 0.238724
321 1 0.309867 0.750576 0.186619
322 1 0.289572 0.746931 0.231085
323 1 0.314909 0.816136 0.329645
324 1 0.334632 0.814589 0.271565
325 1 0.26832 0.715102 0.228542
326 1 0.25016 0.698176 0.279346
327 1 0.275014 0.769995 0.376961
328 1 0.292842 0.780317 0.312801
329 1 0.232389 0.651753 0.281687
330 1 0.219672 0.614724 0.337183
331 1 0.241088 0.697558 0.433047
332 1 0.254604 0.725622 0.363576
333 1 0.2099 0.551186 0.339903
334 1 0.207336 0.497236 0.3925
335 1 0.220374 0.591899 0.491726
336 1 0.225447 0.638274 0.422288
337 1 0.208908 0.427787 0.386243
338 1 0.217957 0.372954 0.427494
339 1 0.22016 0.466595 0.538096
340 1 0.213946 0.519661 0.477351
341 1 0.228969 0.313192 0.407429
342 1 0.246165 0.270649 0.435864
343 1 0.240628 0.351209 0.559464
344 1 0.224678 0.395328 0.512182
345 1 0.261988 0.22458 0.405322
346 1 0.282965 0.194855 0.425375
347 1 0.274159 0.263768 0.556472
348 1 0.252856 0.293058 0.520462
349 1 0.300611 0.157036 0.3904
350 1 0.322791 0.133928 0.407749
351 1 0.312675 0.196936 0.541151
352 1 0.289647 0.217396 0.50988
353 1 0.341328 0.100152 0.372082
354 1 0.363743 0.0794982 0.390136
355 1 0.352246 0.135713 0.525472
356 1 0.329191 0.155173 0.49303
357 1 0.383178 0.0509622 0.353879
358 1 0.405822 0.0336976 0.372539
359 1 0.392378 0.0779604 0.511538
360 1 0.369462 0.0970105 0.477247
361 1 0.426324 0.015153 0.334659
362 1 0.449432 0.00518865 0.352754
363 1 0.433962 0.0306235 0.495771
364 1 0.410681 0.0456362 0.461669
365 1 0.47061 0.0017006 0.313675
366 1 0.493915 0.003132 0.33143
367 1 0.47748 0.00389185 0.476324
368 1 0.453638 0.0103686 0.443243
369 1 0.514641 0.0166344 0.292976
370 1 0.537363 0.0301309 0.311809
371 1 0.521846 0.00590849 0.455055
372 1 0.497963 0.00109846 0.422141
373 1 0.556674 0.0578153 0.275712
374 1 0.578371 0.0801288 0.296579
375 1 0.565038 0.0362003 0.435662
376 1 0.541799 0.0214066 0.401651
377 1 0.596226 0.116853 0.263311
378 1 0.617083 0.143664 0.286218
379 1 0.606078 0.0865548 0.420072
380 1 0.583556 0.0658975 0.384818
381 1 0.633789 0.18584 0.256058
382 1 0.654034 0.216224 0.278724
383 1 0.645341 0.148391 0.407093
384 1 0.623156 0.125082 0.372038
385 1 0.670091 0.260066 0.247909
386 1 0.691715 0.284649 0.264371
387 1 0.683988 0.213809 0.392828
388 1 0.661274 0.192372 0.360956
389 1 0.707899 0.326604 0.230131
390 1 0.728642 0.356564 0.249614
391 1 0.721961 0.282644 0.377757
392 1 0.699499 0.25889 0.345681
393 1 0.74142 0.411434 0.224751
394 1 0.756809 0.458078 0.255703
395 1 0.754977 0.37132 0.374252
396 1 0.736123 0.333425 0.333099
397 1 0.761337 0.525929 0.244507
398 1 0.766982 0.582915 0.288967
399 1 0.774553 0.487967 0.394886
400 1 0.763898 0.436388 0.340382
401 1 0.761125 0.650692 0.288199
402 1 0.756508 0.70325 0.341449
403 1 0.77376 0.613744 0.439586
404 1 0.773828 0.561519 0.374016
405 1 0.742555 0.760043 0.344111
406 1 0.730513 0.79935 0.399604
407 1 0.753602 0.721181 0.496515
408 1 0.762892 0.681392 0.426685
409 1 0.712123 0.844151 0.401148
410 1 0.695898 0.870031 0.454875
411 1 0.720978 0.798661 0.552806
412 1 0.735976 0.775277 0.484669
413 1 0.675524 0.906885 0.4543
414 1 0.656993 0.922534 0.504696
415 1 0.682314 0.851683 0.602597
416 1 0.700243 0.841642 0.538729
417 1 0.635501 0.953776 0.501576
418 1 0.615378 0.960533 0.547501
419 1 0.640864 0.888744 0.644951
420 1 0.660424 0.888722 0.586191
421 1 0.592948 0.985892 0.542023
422 1 0.571731 0.983396 0.582814
423 1 0.597646 0.911282 0.678474
424 1 0.618302 0.921319 0.625884
425 1 0.548489 1.00074 0.573305
426 1 0.526357 0.982248 0.601029
427 1 0.553149 0.912648 0.695497
428 1 0.574454 0.93747 0.655467
429 1 0.503895 0.973666 0.570227
430 1 0.487396 0.922685 0.553617
431 1 0.511152 0.874882 0.671535
432 1 0.529815 0.925909 0.661803
433 1 0.474915 0.893227 0.488517
434 1 0.467973 0.831627 0.454191
435 1 0.482138 0.797846 0.596029
436 1 0.492405 0.865477 0.611385
437 1 0.463512 0.80114 0.378659
438 1 0.463282 0.737222 0.340946
439 1 0.470027 0.705369 0.491633
440 1 0.472226 0.777447 0.516332
441 1 0.465378 0.706779 0.264396
442 1 0.472939 0.646664 0.226293
443 1 0.472741 0.61355 0.37849
444 1 0.467493 0.683999 0.405182
445 1 0.485507 0.626369 0.157025
446 1 0.504752 0.588152 0.134836
447 1 0.492913 0.536447 0.272226
448 1 0.478089 0.595836 0.292335
449 1 0.52524 0.594002 0.0899651
450 1 0.547457 0.56608 0.0849587
451 1 0.528332 0.489381 0.193387
452 1 0.507907 0.53444 0.19858
453 1 0.569706 0.578698 0.0545361
454 1 0.592093 0.55118 0.0551736
455 1 0.569448 0.461642 0.138179
456 1 0.548175 0.50378 0.138085
457 1 0.615158 0.565522 0.0344033
458 1 0.637407 0.536969 0.0374232
459 1 0.612677 0.440869 0.0988939
460 1 0.591288 0.483102 0.0971416
461 1 0.660851 0.551824 0.0233149
462 1 0.682984 0.522674 0.0280265
463 1 0.657225 0.423159 0.0741366
464 1 0.635731 0.465578 0.0700449
465 1 0.706545 0.537794 0.0172597
466 1 0.728638 0.508649 0.0234089
467 1 0.702524 0.408038 0.0641567
468 1 0.680914 0.449905 0.0557086
469 1 0.75221 0.523953 0.0135168
470 1 0.77434 0.49514 0.0206169
471 1 0.748156 0.394694 0.0623096
472 1 0.72643 0.435747 0.0505628
473 1 0.79791 0.51055 0.0105888
474 1 0.82012 0.482125 0.018134
475 1 0.793948 0.381975 0.0617695
476 1 0.772119 0.422522 0.048895
477 1 0.843706 0.497794 0.00813848
478 1 0.86604 0.469976 0.0164959
479 1 0.839857 0.369846 0.0612377
480 1 0.817918 0.409826 0.047587
481 1 0.889717 0.485804 0.00738492
482 1 0.912133 0.458283 0.0171895
483 1 0.885877 0.358664 0.0615563
484 1 0.863834 0.397914 0.0468832
485 1 0.935835 0.473943 0.00929953
486 1 0.959109 0.449727 0.0189263
487 1 0.931946 0.349383 0.0632125
488 1 0.90977 0.386924 0.047881
489 1 0.978227 0.267412 0.0985703
490 1 0.999457 0.238808 0.111174
491 1 0.969207 0.123553 0.161459
492 1 0.950947 0.165248 0.143205
493 1 0.980497 0.479569 0.00539665
494 1 1.00315 0.485373 0.00274776
495 1 0.973184 0.332397 0.0700133
496 1 0.956229 0.378995 0.0497793
